 argument  1 = DIM_spe.nw



============================== echo of input deck ==============================

echo
start
title "H2O on Ag"
#print high
geometry units angstrom nocenter noautoz
 O                 8.77800          .0000000000         .0000000000
 H                 9.30230          .0000000000         .7545655371
 H                 9.30230          .0000000000        -.7545655371
symmetry c1
end

basis spherical
 * library 6-311G
end

driver
 maxiter 100
end

dft
 iterations 200
 xc b3lyp
 grid medium
end


dimqm
 debug
 PIM
 Algorithm 1
 screen EXP 1.0d0
 tolerance 1.0d-7
end

dimpar
 Ag
  rad 1.4445
  bound 3.7180
  drude 9.2093 0.0200 EV
 END

 xyz
  55
  Ag      0.0000000      0.0000000      0.0000000
  Ag      2.8890000      0.0000000      0.0000000
  Ag      5.7780000      0.0000000      0.0000000
  Ag      1.2913830      2.5827660      0.0000000
  Ag      4.1803830      2.5827660      0.0000000
  Ag      2.5827660      5.1655320      0.0000000
  Ag      1.2971610      0.8031420      2.4527610
  Ag      4.1861610      0.8031420      2.4527610
  Ag      2.5885440      3.3859080      2.4527610
  Ag      2.5943220      1.6062840      4.9055220
  Ag     -1.2856050      2.0916360      1.5196140
  Ag      0.0115560      2.8918890      3.9723750
  Ag      0.0057780      4.6744020      1.5196140
  Ag     -2.5712100      4.1832720      3.0392280
  Ag      1.2913830      0.7981186     -2.4563564
  Ag      4.1803830      0.7981186     -2.4563564
  Ag      2.5827660      1.5962373     -4.9127128
  Ag      2.5885440      3.3790175     -2.4622450
  Ag     -1.2856050      2.0915899     -1.5196775
  Ag      0.0115560      4.6715960     -1.5228184
  Ag      0.0057780      2.8897085     -3.9760339
  Ag     -2.5712100      4.1831798     -3.0393549
  Ag      1.2913830     -2.0895015     -1.5181119
  Ag      4.1803830     -2.0895015     -1.5181119
  Ag      2.5827660     -4.1790030     -3.0362237
  Ag      2.5885440     -1.2975602     -3.9745122
  Ag     -1.2856050     -0.7989623     -2.4588264
  Ag      0.0115560     -0.0046837     -4.9135286
  Ag      0.0057780     -2.8884638     -3.9769382
  Ag     -2.5712100     -1.5979245     -4.9176528
  Ag      1.2913830     -2.0895017      1.5181116
  Ag      4.1803830     -2.0895017      1.5181116
  Ag      2.5827660     -4.1790034      3.0362233
  Ag      2.5885440     -4.1809539      0.0058612
  Ag     -1.2856050     -2.5853758      0.0000391
  Ag      0.0115560     -4.6744907     -1.5139095
  Ag      0.0057780     -4.6748775      1.5181507
  Ag     -2.5712100     -5.1707515      0.0000782
  Ag      2.5885440     -1.2864116      3.9781346
  Ag     -1.2856050     -0.7988879      2.4588505
  Ag      0.0115560     -2.8843106      3.9778810
  Ag      0.0057780     -0.0007696      4.9152070
  Ag     -2.5712100     -1.5977759      4.9177011
  Ag     -2.8890000      0.0000000      0.0000000
  Ag     -5.7780000      0.0000000      0.0000000
  Ag     -4.1803830      2.0895016     -1.5181117
  Ag     -4.1861610      2.0914523      1.5122503
  Ag     -2.5885440      4.1809539     -0.0058614
  Ag     -4.1803830     -0.7981185     -2.4563565
  Ag     -2.5885440      1.2864113     -3.9781347
  Ag     -4.1803830     -2.5827660     -0.0000001
  Ag     -2.5885440     -3.3859079     -2.4527612
  Ag     -4.1803830     -0.7981188      2.4563564
  Ag     -2.5885440     -3.3790176      2.4622448
  Ag     -2.5885440      1.2975600      3.9745122
 end
END


task dft energy

================================================================================


                                         
                                         


              Northwest Computational Chemistry Package (NWChem) 6.8
              ------------------------------------------------------


                    Environmental Molecular Sciences Laboratory
                       Pacific Northwest National Laboratory
                                Richland, WA 99352

                              Copyright (c) 1994-2018
                       Pacific Northwest National Laboratory
                            Battelle Memorial Institute

             NWChem is an open-source computational chemistry package
                        distributed under the terms of the
                      Educational Community License (ECL) 2.0
             A copy of the license is included with this distribution
                              in the LICENSE.TXT file

                                  ACKNOWLEDGMENT
                                  --------------

            This software and its documentation were developed at the
            EMSL at Pacific Northwest National Laboratory, a multiprogram
            national laboratory, operated for the U.S. Department of Energy
            by Battelle under Contract Number DE-AC05-76RL01830. Support
            for this work was provided by the Department of Energy Office
            of Biological and Environmental Research, Office of Basic
            Energy Sciences, and the Office of Advanced Scientific Computing.


           Job information
           ---------------

    hostname        = neon.science.psu.edu
    program         = nwchem
    date            = Wed Oct  2 14:58:23 2019

    compiled        = Wed_Oct_02_14:49:27_2019
    source          = /amphome/jbb5516/Programs/nwchem/nwchem-myfork
    nwchem branch   = Development
    nwchem revision = nwchem_on_git-894-g7238b39ff
    ga revision     = 5.7.0
    use scalapack   = F
    input           = DIM_spe.nw
    prefix          = DIM_spe.
    data base       = ./DIM_spe.db
    status          = startup
    nproc           =        3
    time left       =     -1s



           Memory information
           ------------------

    heap     =   13107194 doubles =    100.0 Mbytes
    stack    =   13107199 doubles =    100.0 Mbytes
    global   =   26214400 doubles =    200.0 Mbytes (distinct from heap & stack)
    total    =   52428793 doubles =    400.0 Mbytes
    verify   = yes
    hardfail = no 


           Directory information
           ---------------------

  0 permanent = .
  0 scratch   = .




                                NWChem Input Module
                                -------------------


                                     H2O on Ag
                                     ---------

 Scaling coordinates for geometry "geometry" by  1.889725989
 (inverse scale =  0.529177249)

 Turning off AUTOSYM since
 SYMMETRY directive was detected!



                             Geometry "geometry" -> ""
                             -------------------------

 Output coordinates in angstroms (scale by  1.889725989 to convert to a.u.)

  No.       Tag          Charge          X              Y              Z
 ---- ---------------- ---------- -------------- -------------- --------------
    1 O                    8.0000     8.77800000     0.00000000     0.00000000
    2 H                    1.0000     9.30230000     0.00000000     0.75456554
    3 H                    1.0000     9.30230000     0.00000000    -0.75456554

      Atomic Mass 
      ----------- 

      O                 15.994910
      H                  1.007825


 Effective nuclear repulsion energy (a.u.)       9.5653912874

            Nuclear Dipole moment (a.u.) 
            ----------------------------
        X                 Y               Z
 ---------------- ---------------- ----------------
   167.8617139492     0.0000000000     0.0000000000


            XYZ format geometry
            -------------------
     3
 geometry
 O                     8.77800000     0.00000000     0.00000000
 H                     9.30230000     0.00000000     0.75456554
 H                     9.30230000     0.00000000    -0.75456554

 ==============================================================================
                                internuclear distances
 ------------------------------------------------------------------------------
       center one      |      center two      | atomic units |  angstroms
 ------------------------------------------------------------------------------
    2 H                |   1 O                |     1.73635  |     0.91884
    3 H                |   1 O                |     1.73635  |     0.91884
 ------------------------------------------------------------------------------
                         number of included internuclear distances:          2
 ==============================================================================



 ==============================================================================
                                 internuclear angles
 ------------------------------------------------------------------------------
        center 1       |       center 2       |       center 3       |  degrees
 ------------------------------------------------------------------------------
    2 H                |   1 O                |   3 H                |   110.41
 ------------------------------------------------------------------------------
                            number of included internuclear angles:          1
 ==============================================================================





 Summary of "ao basis" -> "" (spherical)
 ------------------------------------------------------------------------------
       Tag                 Description            Shells   Functions and Types
 ---------------- ------------------------------  ------  ---------------------
 *                           6-311G                   on all atoms 


 starting dimqm_input2

                                 NWChem DFT Module
                                 -----------------


                                     H2O on Ag


                      Basis "ao basis" -> "ao basis" (spherical)
                      -----
  O (Oxygen)
  ----------
            Exponent  Coefficients 
       -------------- ---------------------------------------------------------
  1 S  8.58850000E+03  0.001895
  1 S  1.29723000E+03  0.014386
  1 S  2.99296000E+02  0.070732
  1 S  8.73771000E+01  0.240001
  1 S  2.56789000E+01  0.594797
  1 S  3.74004000E+00  0.280802

  2 S  4.21175000E+01  0.113889
  2 S  9.62837000E+00  0.920811
  2 S  2.85332000E+00 -0.003274

  3 P  4.21175000E+01  0.036511
  3 P  9.62837000E+00  0.237153
  3 P  2.85332000E+00  0.819702

  4 S  9.05661000E-01  1.000000

  5 P  9.05661000E-01  1.000000

  6 S  2.55611000E-01  1.000000

  7 P  2.55611000E-01  1.000000

  H (Hydrogen)
  ------------
            Exponent  Coefficients 
       -------------- ---------------------------------------------------------
  1 S  3.38650000E+01  0.025494
  1 S  5.09479000E+00  0.190373
  1 S  1.15879000E+00  0.852161

  2 S  3.25840000E-01  1.000000

  3 S  1.02741000E-01  1.000000



 Summary of "ao basis" -> "ao basis" (spherical)
 ------------------------------------------------------------------------------
       Tag                 Description            Shells   Functions and Types
 ---------------- ------------------------------  ------  ---------------------
 O                           6-311G                  7       13   4s3p
 H                           6-311G                  3        3   3s




 Summary of "ao basis" -> "ao basis" (spherical)
 ------------------------------------------------------------------------------
       Tag                 Description            Shells   Functions and Types
 ---------------- ------------------------------  ------  ---------------------
 O                           6-311G                  7       13   4s3p
 H                           6-311G                  3        3   3s


  Caching 1-el integrals 

            General Information
            -------------------
          SCF calculation type: DFT
          Wavefunction type:  closed shell.
          No. of atoms     :     3
          No. of electrons :    10
           Alpha electrons :     5
            Beta electrons :     5
          Charge           :     0
          Spin multiplicity:     1
          Use of symmetry is: off; symmetry adaption is: off
          Maximum number of iterations: 200
          AO basis - number of functions:    19
                     number of shells:    13
          Convergence on energy requested:  1.00D-06
          Convergence on density requested:  1.00D-05
          Convergence on gradient requested:  5.00D-04

              XC Information
              --------------
                         B3LYP Method XC Potential
                     Hartree-Fock (Exact) Exchange  0.200          
                        Slater Exchange Functional  0.800 local    
                    Becke 1988 Exchange Functional  0.720 non-local
              Lee-Yang-Parr Correlation Functional  0.810          
                  VWN I RPA Correlation Functional  0.190 local    

             Grid Information
             ----------------
          Grid used for XC integration:  medium    
          Radial quadrature: Mura-Knowles        
          Angular quadrature: Lebedev. 
          Tag              B.-S. Rad. Rad. Pts. Rad. Cut. Ang. Pts.
          ---              ---------- --------- --------- ---------
          O                   0.60       49           5.0       434
          H                   0.35       45           7.0       434
          Grid pruning is: on 
          Number of quadrature shells:   139
          Spatial weights used:  Erf1

          Convergence Information
          -----------------------
          Convergence aids based upon iterative change in 
          total energy or number of iterations. 
          Levelshifting, if invoked, occurs when the 
          HOMO/LUMO gap drops below (HL_TOL):  1.00D-02
          DIIS, if invoked, will attempt to extrapolate 
          using up to (NFOCK): 10 stored Fock matrices.

                    Damping( 0%)  Levelshifting(0.5)       DIIS
                  --------------- ------------------- ---------------
          dE  on:    start            ASAP                start   
          dE off:    2 iters        200 iters           200 iters 


      Screening Tolerance Information
      -------------------------------
          Density screening/tol_rho:  1.00D-10
          AO Gaussian exp screening on grid/accAOfunc:  14
          CD Gaussian exp screening on grid/accCDfunc:  20
          XC Gaussian exp screening on grid/accXCfunc:  20
          Schwarz screening/accCoul:  1.00D-08


      Superposition of Atomic Density Guess
      -------------------------------------

 Sum of atomic energies:         -75.77574266

      Non-variational initial energy
      ------------------------------

 Total energy =     -76.008172
 1-e energy   =    -122.354579
 2-e energy   =      36.781016
 HOMO         =      -0.485304
 LUMO         =       0.080417

   Time after variat. SCF:      0.1
   Time prior to 1st pass:      0.1

 #quartets = 4.186D+03 #integrals = 1.018D+04 #direct =  0.0% #cached =100.0%


 Integral file          = ./DIM_spe.aoints.0
 Record size in doubles =  65536        No. of integs per rec  =  43688
 Max. records in memory =      2        Max. records in file   = 541729
 No. of bits per label  =      8        No. of bits per value  =     64


File balance: exchanges=     0  moved=     0  time=   0.0


 Grid_pts file          = ./DIM_spe.gridpts.0
 Record size in doubles =  12289        No. of grid_pts per rec  =   3070
 Max. records in memory =      9        Max. recs in file   =   2888991


           Memory utilization after 1st SCF pass: 
           Heap Space remaining (MW):       12.86            12864114
          Stack Space remaining (MW):       13.11            13106948

   convergence    iter        energy       DeltaE   RMS-Dens  Diis-err    time
 ---------------- ----- ----------------- --------- --------- ---------  ------
 d= 0,ls=0.0,diis     1    -76.3701942927 -8.59D+01  3.04D-02  4.20D-01     0.2
 DIM/QM dipoles converged in                   24 iters
 max dip error:    6.2332801033834657E-002
 max dip error:    6.2332801033834657E-002
 max dip error:    6.2332801033834657E-002
 d= 0,ls=0.0,diis     2    -76.3715161168 -1.32D-03  1.56D-02  4.78D-01     0.3
 DIM/QM dipoles converged in                   24 iters
 max dip error:   0.11036188094180122     
 max dip error:   0.11036188094180122     
 max dip error:   0.11036188094180122     
 d= 0,ls=0.0,diis     3    -76.4095949580 -3.81D-02  2.07D-03  1.48D-02     0.4
 DIM/QM dipoles converged in                   24 iters
 max dip error:    3.0842436352737090E-003
 max dip error:    3.0842436352737090E-003
 max dip error:    3.0842436352737090E-003
 d= 0,ls=0.0,diis     4    -76.4106253656 -1.03D-03  2.16D-04  4.61D-05     0.5
 DIM/QM dipoles converged in                   24 iters
 max dip error:    5.9318878678049636E-004
 max dip error:    5.9318878678049636E-004
 max dip error:    5.9318878678049636E-004
 d= 0,ls=0.0,diis     5    -76.4106211970  4.17D-06  2.15D-05  3.91D-08     0.6
 DIM/QM dipoles converged in                   24 iters
 max dip error:    5.7654519187488873E-005
 max dip error:    5.7654519187488873E-005
 max dip error:    5.7654519187488873E-005
 d= 0,ls=0.0,diis     6    -76.4106203339  8.63D-07  1.98D-06  1.21D-09     0.7


         Total DFT energy =      -76.415874786719
      One electron energy =     -123.807340162820
           Coulomb energy =       47.237830193752
    Exchange-Corr. energy =       -9.406501652212
 Nuclear repulsion energy =        9.565391287357

 Numeric. integr. density =       10.000000847284

     Total iterative time =      0.6s


 DIM/QM dipoles converged in                   24 iters
 max dip error:    5.1343941048775932E-006
 max dip error:    5.1343941048775932E-006
 max dip error:    5.1343941048775932E-006
 ---------------------------- DIM/QM RESULTS -------------------
 
 
 DIM/QM Energy
 Total:     -5.2545312399321364E-003
 it seems the job finished, do this later

                       DFT Final Molecular Orbital Analysis
                       ------------------------------------

 Vector    1  Occ=2.000000D+00  E=-1.912285D+01
              MO Center=  8.8D+00, -4.6D-10, -3.9D-10, r^2= 1.5D-02
   Bfn.  Coefficient  Atom+Function         Bfn.  Coefficient  Atom+Function  
  ----- ------------  ---------------      ----- ------------  ---------------
     1      0.551263  1 O  s                  2      0.469925  1 O  s          

 Vector    2  Occ=2.000000D+00  E=-1.060021D+00
              MO Center=  9.0D+00, -2.2D-07, -5.5D-07, r^2= 4.9D-01
   Bfn.  Coefficient  Atom+Function         Bfn.  Coefficient  Atom+Function  
  ----- ------------  ---------------      ----- ------------  ---------------
     6      0.537847  1 O  s                 10      0.403400  1 O  s          
     2     -0.184766  1 O  s                  1     -0.115024  1 O  s          
     7      0.114862  1 O  px                14      0.112040  2 H  s          
    17      0.112040  3 H  s                  3      0.061962  1 O  px         
    11      0.059740  1 O  px                15      0.042969  2 H  s          

 Vector    3  Occ=2.000000D+00  E=-5.855519D-01
              MO Center=  9.0D+00, -1.4D-14,  6.6D-08, r^2= 7.6D-01
   Bfn.  Coefficient  Atom+Function         Bfn.  Coefficient  Atom+Function  
  ----- ------------  ---------------      ----- ------------  ---------------
     9      0.361946  1 O  pz                 5      0.238214  1 O  pz         
    13      0.202759  1 O  pz                15      0.184475  2 H  s          
    18     -0.184476  3 H  s                 14      0.171656  2 H  s          
    17     -0.171656  3 H  s                 16      0.064125  2 H  s          
    19     -0.064126  3 H  s          

 Vector    4  Occ=2.000000D+00  E=-3.846897D-01
              MO Center=  8.6D+00, -4.6D-07, -5.0D-07, r^2= 6.4D-01
   Bfn.  Coefficient  Atom+Function         Bfn.  Coefficient  Atom+Function  
  ----- ------------  ---------------      ----- ------------  ---------------
    11      0.402791  1 O  px                 7      0.366726  1 O  px         
    10     -0.305754  1 O  s                  3      0.266275  1 O  px         
     6     -0.220363  1 O  s                 15      0.086005  2 H  s          
    18      0.086007  3 H  s                 14      0.082170  2 H  s          
    17      0.082171  3 H  s                  2      0.074266  1 O  s          

 Vector    5  Occ=2.000000D+00  E=-3.261115D-01
              MO Center=  8.8D+00,  5.0D-07,  4.2D-15, r^2= 6.1D-01
   Bfn.  Coefficient  Atom+Function         Bfn.  Coefficient  Atom+Function  
  ----- ------------  ---------------      ----- ------------  ---------------
    12      0.495953  1 O  py                 8      0.424842  1 O  py         
     4      0.304136  1 O  py         

 Vector    6  Occ=0.000000D+00  E= 1.052359D-02
              MO Center=  9.5D+00, -2.8D-07, -2.4D-05, r^2= 3.2D+00
   Bfn.  Coefficient  Atom+Function         Bfn.  Coefficient  Atom+Function  
  ----- ------------  ---------------      ----- ------------  ---------------
    10      0.906185  1 O  s                 16     -0.765756  2 H  s          
    19     -0.765787  3 H  s                 11      0.233134  1 O  px         
     6      0.183779  1 O  s                  7      0.151657  1 O  px         
    15     -0.099924  2 H  s                 18     -0.099922  3 H  s          
     3      0.090428  1 O  px                 2     -0.069339  1 O  s          

 Vector    7  Occ=0.000000D+00  E= 9.105024D-02
              MO Center=  9.4D+00, -3.2D-13,  2.3D-05, r^2= 4.0D+00
   Bfn.  Coefficient  Atom+Function         Bfn.  Coefficient  Atom+Function  
  ----- ------------  ---------------      ----- ------------  ---------------
    16      1.425490  2 H  s                 19     -1.425475  3 H  s          
    13     -0.539927  1 O  pz                 9     -0.212404  1 O  pz         
     5     -0.156569  1 O  pz                15      0.060664  2 H  s          
    18     -0.060661  3 H  s          

 Vector    8  Occ=0.000000D+00  E= 3.836834D-01
              MO Center=  8.9D+00,  7.1D-13, -3.0D-05, r^2= 2.3D+00
   Bfn.  Coefficient  Atom+Function         Bfn.  Coefficient  Atom+Function  
  ----- ------------  ---------------      ----- ------------  ---------------
    15      1.498888  2 H  s                 18     -1.498969  3 H  s          
    13     -1.129149  1 O  pz                16     -0.897486  2 H  s          
    19      0.897517  3 H  s                  9     -0.202472  1 O  pz         
     5     -0.133557  1 O  pz                14      0.112301  2 H  s          
    17     -0.112306  3 H  s          

 Vector    9  Occ=0.000000D+00  E= 3.995175D-01
              MO Center=  9.4D+00,  5.5D-08,  3.0D-05, r^2= 2.1D+00
   Bfn.  Coefficient  Atom+Function         Bfn.  Coefficient  Atom+Function  
  ----- ------------  ---------------      ----- ------------  ---------------
    15      1.670540  2 H  s                 18      1.670466  3 H  s          
    10     -1.207267  1 O  s                 11     -0.869294  1 O  px         
    16     -0.665863  2 H  s                 19     -0.665819  3 H  s          
     7     -0.183872  1 O  px                 6     -0.154106  1 O  s          
    14      0.112066  2 H  s                 17      0.112061  3 H  s          

 Vector   10  Occ=0.000000D+00  E= 7.373958D-01
              MO Center=  8.8D+00, -1.0D-05,  2.8D-12, r^2= 1.3D+00
   Bfn.  Coefficient  Atom+Function         Bfn.  Coefficient  Atom+Function  
  ----- ------------  ---------------      ----- ------------  ---------------
    12      1.123920  1 O  py                 8     -0.809764  1 O  py         
     4     -0.268164  1 O  py         

 Vector   11  Occ=0.000000D+00  E= 7.401139D-01
              MO Center=  8.5D+00,  1.0D-05, -4.5D-07, r^2= 1.3D+00
   Bfn.  Coefficient  Atom+Function         Bfn.  Coefficient  Atom+Function  
  ----- ------------  ---------------      ----- ------------  ---------------
    11      1.402169  1 O  px                 7     -0.802407  1 O  px         
    10      0.494812  1 O  s                 15     -0.363709  2 H  s          
    18     -0.363711  3 H  s                  3     -0.252094  1 O  px         
     6      0.089588  1 O  s                 16     -0.082392  2 H  s          
    19     -0.082383  3 H  s                 14     -0.040360  2 H  s          

 Vector   12  Occ=0.000000D+00  E= 8.717187D-01
              MO Center=  8.7D+00, -2.5D-13,  3.3D-07, r^2= 1.9D+00
   Bfn.  Coefficient  Atom+Function         Bfn.  Coefficient  Atom+Function  
  ----- ------------  ---------------      ----- ------------  ---------------
    13      1.834431  1 O  pz                 9     -0.850022  1 O  pz         
    16     -0.839323  2 H  s                 19      0.839325  3 H  s          
    15     -0.285733  2 H  s                 18      0.285739  3 H  s          
     5     -0.254426  1 O  pz         

 Vector   13  Occ=0.000000D+00  E= 1.140850D+00
              MO Center=  9.0D+00,  3.9D-07,  1.8D-06, r^2= 1.4D+00
   Bfn.  Coefficient  Atom+Function         Bfn.  Coefficient  Atom+Function  
  ----- ------------  ---------------      ----- ------------  ---------------
    10      2.966727  1 O  s                  6     -1.816676  1 O  s          
    11      0.688121  1 O  px                15     -0.661555  2 H  s          
    18     -0.661554  3 H  s                 16     -0.387851  2 H  s          
    19     -0.387848  3 H  s                  2      0.244896  1 O  s          
     1      0.122724  1 O  s                  7     -0.082591  1 O  px         

 Vector   14  Occ=0.000000D+00  E= 2.108128D+00
              MO Center=  9.3D+00, -1.0D-09, -1.5D-05, r^2= 1.5D+00
   Bfn.  Coefficient  Atom+Function         Bfn.  Coefficient  Atom+Function  
  ----- ------------  ---------------      ----- ------------  ---------------
    15      1.674034  2 H  s                 18      1.674064  3 H  s          
    14     -1.089982  2 H  s                 17     -1.090001  3 H  s          
    10     -0.593726  1 O  s                 16     -0.504688  2 H  s          
    19     -0.504703  3 H  s                 11     -0.403232  1 O  px         
     3      0.160551  1 O  px                 6     -0.064679  1 O  s          

 Vector   15  Occ=0.000000D+00  E= 2.160786D+00
              MO Center=  9.3D+00, -7.2D-16,  1.5D-05, r^2= 1.6D+00
   Bfn.  Coefficient  Atom+Function         Bfn.  Coefficient  Atom+Function  
  ----- ------------  ---------------      ----- ------------  ---------------
    15      1.708119  2 H  s                 18     -1.708089  3 H  s          
    14     -1.101096  2 H  s                 17      1.101077  3 H  s          
    16     -0.820052  2 H  s                 19      0.820042  3 H  s          
    13     -0.356333  1 O  pz                 5      0.201574  1 O  pz         
     9     -0.027637  1 O  pz         

 Vector   16  Occ=0.000000D+00  E= 4.723707D+00
              MO Center=  8.8D+00,  8.2D-09,  8.8D-16, r^2= 4.2D-01
   Bfn.  Coefficient  Atom+Function         Bfn.  Coefficient  Atom+Function  
  ----- ------------  ---------------      ----- ------------  ---------------
     8      1.391258  1 O  py                 4     -1.262055  1 O  py         
    12     -0.542814  1 O  py         

 Vector   17  Occ=0.000000D+00  E= 4.831067D+00
              MO Center=  8.8D+00,  5.1D-09, -2.7D-08, r^2= 4.3D-01
   Bfn.  Coefficient  Atom+Function         Bfn.  Coefficient  Atom+Function  
  ----- ------------  ---------------      ----- ------------  ---------------
     7      1.438664  1 O  px                 3     -1.263489  1 O  px         
    11     -0.692814  1 O  px                15      0.362403  2 H  s          
    18      0.362402  3 H  s                 10     -0.344589  1 O  s          
    14     -0.240784  2 H  s                 17     -0.240783  3 H  s          
     6      0.084104  1 O  s          

 Vector   18  Occ=0.000000D+00  E= 5.004478D+00
              MO Center=  8.8D+00,  7.9D-16,  5.1D-08, r^2= 4.6D-01
   Bfn.  Coefficient  Atom+Function         Bfn.  Coefficient  Atom+Function  
  ----- ------------  ---------------      ----- ------------  ---------------
     9      1.534301  1 O  pz                 5     -1.274359  1 O  pz         
    13     -0.886537  1 O  pz                15      0.390567  2 H  s          
    18     -0.390568  3 H  s                 14     -0.314718  2 H  s          
    17      0.314718  3 H  s                 16      0.165363  2 H  s          
    19     -0.165363  3 H  s          

 Vector   19  Occ=0.000000D+00  E= 4.971686D+01
              MO Center=  8.8D+00,  1.5D-10,  2.5D-10, r^2= 3.6D-02
   Bfn.  Coefficient  Atom+Function         Bfn.  Coefficient  Atom+Function  
  ----- ------------  ---------------      ----- ------------  ---------------
     2     -2.330177  1 O  s                  1      2.245915  1 O  s          
    10     -0.252754  1 O  s                  6      0.248599  1 O  s          
    11     -0.048813  1 O  px                15      0.046183  2 H  s          
    18      0.046183  3 H  s                 16      0.032505  2 H  s          
    19      0.032505  3 H  s          


 center of mass
 --------------
 x =  16.69889814 y =   0.00000000 z =   0.00000000

 moments of inertia (a.u.)
 ------------------
           4.098328124931           0.000000000000           0.000000000000
           0.000000000000           5.855551995131           0.000000000000
           0.000000000000           0.000000000000           1.757223870200

     Multipole analysis of the density
     ---------------------------------

     L   x y z        total         alpha         beta         nuclear
     -   - - -        -----         -----         ----         -------
     0   0 0 0     -0.000000     -5.000000     -5.000000     10.000000

     1   1 0 0      0.990155    -83.435780    -83.435780    167.861714
     1   0 1 0      0.000001      0.000000      0.000000      0.000000
     1   0 0 1      0.000004      0.000002      0.000002      0.000000

     2   2 0 0     28.509889  -1395.408127  -1395.408127   2819.326144
     2   1 1 0      0.000012      0.000006      0.000006      0.000000
     2   1 0 1      0.000064      0.000032      0.000032      0.000000
     2   0 2 0     -5.386220     -2.693110     -2.693110      0.000000
     2   0 1 1      0.000000      0.000000      0.000000      0.000000
     2   0 0 2     -3.015907     -3.541207     -3.541207      4.066508


 Parallel integral file used       3 records with       0 large values


 Task  times  cpu:        0.7s     wall:        0.7s


                                NWChem Input Module
                                -------------------


 Summary of allocated global arrays
-----------------------------------
  No active global arrays



                         GA Statistics for process    0
                         ------------------------------

       create   destroy   get      put      acc     scatter   gather  read&inc
calls:  177      177     3323     1381     1.29e+04    0        0      264     
number of processes/call 2.77e+15 7.26e+13 7.11e+13 0.00e+00 0.00e+00
bytes total:             1.75e+06 2.98e+05 1.50e+06 0.00e+00 0.00e+00 2.11e+03
bytes remote:            1.81e+05 2.34e+04 1.73e+05 0.00e+00 0.00e+00 0.00e+00
Max memory consumed for GA by this process: 105288 bytes

MA_summarize_allocated_blocks: starting scan ...
MA_summarize_allocated_blocks: scan completed: 0 heap blocks, 0 stack blocks
MA usage statistics:

	allocation statistics:
					      heap	     stack
					      ----	     -----
	current number of blocks	         0	         0
	maximum number of blocks	        22	        53
	current total bytes		         0	         0
	maximum total bytes		   1947240	  22510680
	maximum total K-bytes		      1948	     22511
	maximum total M-bytes		         2	        23


                                     CITATION
                                     --------
                Please cite the following reference when publishing
                           results obtained with NWChem:

                 M. Valiev, E.J. Bylaska, N. Govind, K. Kowalski,
              T.P. Straatsma, H.J.J. van Dam, D. Wang, J. Nieplocha,
                        E. Apra, T.L. Windus, W.A. de Jong
                 "NWChem: a comprehensive and scalable open-source
                  solution for large scale molecular simulations"
                      Comput. Phys. Commun. 181, 1477 (2010)
                           doi:10.1016/j.cpc.2010.04.018

                                      AUTHORS
                                      -------
          E. Apra, E. J. Bylaska, W. A. de Jong, N. Govind, K. Kowalski,
       T. P. Straatsma, M. Valiev, H. J. J. van Dam, D. Wang, T. L. Windus,
        J. Hammond, J. Autschbach, K. Bhaskaran-Nair, J. Brabec, K. Lopata,
    S. A. Fischer, S. Krishnamoorthy, M. Jacquelin, W. Ma, M. Klemm, O. Villa,
      Y. Chen, V. Anisimov, F. Aquino, S. Hirata, M. T. Hackler, V. Konjkov,
            D. Mejia-Rodriguez, T. Risthaus, M. Malagoli, A. Marenich,
   A. Otero-de-la-Roza, J. Mullin, P. Nichols, R. Peverati, J. Pittner, Y. Zhao,
        P.-D. Fan, A. Fonari, M. J. Williamson, R. J. Harrison, J. R. Rehr,
      M. Dupuis, D. Silverstein, D. M. A. Smith, J. Nieplocha, V. Tipparaju,
    M. Krishnan, B. E. Van Kuiken, A. Vazquez-Mayagoitia, L. Jensen, M. Swart,
      Q. Wu, T. Van Voorhis, A. A. Auer, M. Nooijen, L. D. Crosby, E. Brown,
      G. Cisneros, G. I. Fann, H. Fruchtl, J. Garza, K. Hirao, R. A. Kendall,
      J. A. Nichols, K. Tsemekhman, K. Wolinski, J. Anchell, D. E. Bernholdt,
      P. Borowski, T. Clark, D. Clerc, H. Dachsel, M. J. O. Deegan, K. Dyall,
    D. Elwood, E. Glendening, M. Gutowski, A. C. Hess, J. Jaffe, B. G. Johnson,
     J. Ju, R. Kobayashi, R. Kutteh, Z. Lin, R. Littlefield, X. Long, B. Meng,
      T. Nakajima, S. Niu, L. Pollack, M. Rosing, K. Glaesemann, G. Sandrone,
      M. Stave, H. Taylor, G. Thomas, J. H. van Lenthe, A. T. Wong, Z. Zhang.

 Total times  cpu:        0.7s     wall:        0.8s
