

 Parallel Execution: Process Information
 ==============================================================================
 Rank   Node Name                              NodeID   MyNodeRank  NodeMaster
    0   neon.science.psu.edu                      0          0          0
    1   neon.science.psu.edu                      0          1         -1
    2   neon.science.psu.edu                      0          2         -1
    3   neon.science.psu.edu                      0          3         -1
    4   neon.science.psu.edu                      0          4         -1
    5   neon.science.psu.edu                      0          5         -1
    6   neon.science.psu.edu                      0          6         -1
    7   neon.science.psu.edu                      0          7         -1
    8   neon.science.psu.edu                      0          8         -1
    9   neon.science.psu.edu                      0          9         -1
 ==============================================================================


May use up to 7611MB of RAM as shared memory on node 0

TITLE None

ATOMS
1  H     1.00000000    0.61448000    0.00000000
2  H    -1.00000000    0.61448000    0.00000000
3  O     0.00000000    0.00000000    0.00000000
END

XC
 GGA Becke Perdew
END

GEOMETRY
END

Fragments
H t21.H
O t21.O
End
end input

 *******************************************************************************
 *                                                                             *
 *  -------------------------------------                                      *
 *   Amsterdam Density Functional  (ADF)         branches/JeffBecca/2019-01-23 *
 *  -------------------------------------                                      *
 *                                               r73179 2019-03-20             *
 *                                                                             *
 *                                                                             *
 *                              =================                              *
 *                              |               |                              *
 *                              |     A D F     |                              *
 *                              |               |                              *
 *                              =================                              *
 *                                                                             *
 *                                                                             *
 *   Online information and documentation:  https://www.scm.com/support/       *
 *   E-mail:  support@scm.com   info@scm.com                                   *
 *                                                                             *
 *   Scientific publications using ADF results must be properly referenced     *
 *   See the User Manuals (or the web site) for recommended citations          *
 *   The terms and conditions of the End User License Agreement apply to       *
 *   the use of ADF, https://www.scm.com/license-terms/                        *
 *                                                                             *
 ***********************  x86_64_linux_gnu8 / openmpi  *************************
 
 Licensed to: Prof. Lasse Jensen / Penn State University / University Park / PA  / USA
 SCM User ID: u8493
  
 ADF branches/JeffBecca/2019-01-23  RunTime: Feb06-2021 22:13:27  Nodes: 1  Procs: 10

 Temporary files are created in /scratch/kid_0.151023773


Communication costs MPI_COMM_WORLD:      1.732 usec per message,   0.0296 usec per 8-byte item
Communication costs for intra-node:      1.580 usec per message,   0.0277 usec per 8-byte item

 None



 ===========================
 A T T A C H E D   F I L E S
 ===========================
  



 ===============================
 M O D E L   P A R A M E T E R S
 ===============================
  
 DENSITY FUNCTIONAL POTENTIAL (scf)
    LDA:                               VWN                                      
    Gradient Corrections:              Becke88 Perdew86                        == Not Default ==

 SPIN  (restricted / unrestr.)
    Molecule:                          Restricted                               
    Fragments:                         Restricted                               

 OTHER ASPECTS
    Relativistic Corrections:          ---                                      

    Nuclear Charge Density Model:      Point Charge Nuclei                      
    Core Treatment:                    Frozen Orbital(s)                        

    Hyperfine or Zeeman Interaction:   ---                                      


 Fragment File(s)
 ----------------
 H:
         file : t21.H
         jobid: ADF branches/JeffBecca/2019-01-23  RunTime: Feb06-2021 22:13:23  Nodes: 1  Procs: 1
         title: Hydrogen (DZP)
 O:
         file : t21.O
         jobid: ADF branches/JeffBecca/2019-01-23  RunTime: Feb06-2021 22:13:26  Nodes: 1  Procs: 1
         title: Oxygen (DZP, 1s frozen)



                                   *********************************************
                                   *  R U N   T Y P E : GEOMETRY OPTIMIZATION  *
                                   *********************************************
  



 ===============
 G E O M E T R Y  ***  Planar Molecule  ***
 ===============
  

 ATOMS
 =====                            X Y Z                    CHARGE
                                (Angstrom)             Nucl     +Core       At.Mass
                       --------------------------    ----------------       -------
    1  H               0.0000   -1.0000    0.6145      1.00      1.00        1.0078
    2  H               0.0000    1.0000    0.6145      1.00      1.00        1.0078
    3  O               0.0000    0.0000    0.0000      8.00      6.00       15.9949


 FRAGMENTS
 =========                                     Atoms in this Fragment     Cart. coord.s (Angstrom)
                                               -------------------------------------------------------
    1  H                                                 1  H            0.0000   -1.0000    0.6145
    2  H                                                 2  H            0.0000    1.0000    0.6145
    3  O                                                 3  O            0.0000    0.0000    0.0000


 Interatomic Distance Matrix (Angstrom)
 --------------------------------------

   1)     0.000
   2)     2.000   0.000
   3)     1.174   1.174   0.000

 Min. Distance =    1.1737
 Max. Distance =    2.0000



 =====================================
 S Y M M E T R Y ,   E L E C T R O N S
 =====================================
  
 Symmetry: C(2V)

 Irreducible Representations, including subspecies
 -------------------------------------------------
 A1
 A2
 B1
 B2


 Configuration of Valence Electrons
 ==================================
 ( determined in the SCF procedure )

 Total:   8

 Net Charge: 0 (Nuclei minus Electrons)

 Aufbau principle for MO occupations will be applied through SCF cycle no.     150
 Thereafter, the program will assign electrons to MOs that are spatially
 similar to the occupied MOs in a "reference" cycle ("KeepOrbitals").
 The reference cycle is always the PREVIOUS cycle: it will evolve with
 the SCF procedure.
1
 ***************************************************************************************************



                                      ****************************************
                                      *  B U I L D : (Fragments, Functions)  *
                                      ****************************************
  

 Total nr. of (C)SFOs (summation over all irreps) :    23

 Specify PRINT SFO in the input file to get a full list

 Nr. of SFOs for ir.rep.          A1 :    10
 Nr. of SFOs for ir.rep.          A2 :     2
 Nr. of SFOs for ir.rep.          B1 :     4
 Nr. of SFOs for ir.rep.          B2 :     7



 ================================
 (Slater-type)  F U N C T I O N S  ***  (Basis and Fit)  ***
 ================================
  

 Atom Type    1  (H)
 ==============

 Valence Basis Sets:   3
 -----------------------
   1 S    0.760000
   1 S    1.280000
   2 P    1.250000

 Atom Type    2  (O)
 ==============

 Valence Basis Sets:   6
 -----------------------
   1 S    7.360000
   2 S    1.700000
   2 S    2.820000
   2 P    1.300000
   2 P    3.060000
   3 D    2.000000

 Frozen Core Shells
 ------------------
    S:  1


 BAS: List of all Elementary Cartesian Basis Functions
 =====================================================

 The numbering in the list below (to the right of the function characteristics) is referred
 to in print-outs of MO eigenvectors and Mulliken populations in the BAS representation
 (as contrasted to the SFO representation).

 Notes:
 1. The functions are characterized by a polynomial prefactor (powers of x,y,z and r) and
    an exponential decay factor alpha.
 2. Since the basis sets are specific for an atom TYPE, the individual functions occur on
    all atoms of that type.
 3. The word 'Core' in the left margin signals that it is a Core Function (CF) : not a
    degree of freedom in the valence set, but only used to ensure orthogonalization of
    the other valence basis functions on the frozen Core Orbitals.


 (power of) X  Y  Z  R     Alpha  on Atom
            ==========     =====     ==========

 H                                    1    2
                                  ---------------------------------------------------------------------------
            0  0  0  0     0.760      1    6
            0  0  0  0     1.280      2    7
            1  0  0  0     1.250      3    8
            0  1  0  0     1.250      4    9
            0  0  1  0     1.250      5   10

 O                                    3
                                  ---------------------------------------------------------------------------
    Core    0  0  0  0     7.360     11
            0  0  0  1     1.700     12
            0  0  0  1     2.820     13
            1  0  0  0     1.300     14
            0  1  0  0     1.300     15
            0  0  1  0     1.300     16
            1  0  0  0     3.060     17
            0  1  0  0     3.060     18
            0  0  1  0     3.060     19
            2  0  0  0     2.000     20
            1  1  0  0     2.000     21
            1  0  1  0     2.000     22
            0  2  0  0     2.000     23
            0  1  1  0     2.000     24
            0  0  2  0     2.000     25

 Total number of charge fitting functions (nprimf)       182
 Total number of Cartesian basis functions (naos)         25
 Total number of Cartesian core functions  (ncos)          1



 Coordinates (Cartesian)
 =======================

     Atom                    bohr                                 angstrom                 Geometric Variables
                   X           Y           Z              X           Y           Z       (0:frozen, *:LT par.)
 --------------------------------------------------------------------------------------------------------------
     1 H       0.000000   -1.889726    1.161199       0.000000   -1.000000    0.614480      1       2       3
     2 H       0.000000    1.889726    1.161199       0.000000    1.000000    0.614480      4       5       6
     3 O       0.000000    0.000000    0.000000       0.000000    0.000000    0.000000      7       8       9
 --------------------------------------------------------------------------------------------------------------
1
 ***************************************************************************************************



                                              ***********************
                                              *  T E C H N I C A L  *
                                              ***********************
  



 =============================================================
 P A R A L L E L I Z A T I O N  and  V E C T O R I Z A T I O N
 =============================================================
  
 Nr of parallel processes:                               10
 Maximum vector length in NumInt loops:                 128



 ===============================
 G E O M E T R Y   U P D A T E S
 ===============================
  
 Optimization coordinates:                       Delocalized
 Optimization code branch:                       NEW
 Hessian update method:                          BFGS (Broyden-Fletcher-Goldfarb-Shanno)

 Iterative Geometry Improvements:
    Max. nr. of iterations:                         30
    Convergence criteria:
         Change in energy (hartree):                 0.0010000000
         Gradients (au/Angstrom):                    0.0010000000
         Cart/bondlength changes (Angstrom):         0.0100000000
    Max. step to take:
         Trust Radius:                               0.2000000000

 GDIIS (Geometry Direct Inversion in Iteration Space):
    First geometry cycle:                            0
    Max. number expansion vectors:                   5



 =====================
 S C F   U P D A T E S
 =====================
  
 Max. nr. of cycles:                               300
 Convergence criterion:                              0.0000010000
   secondary criterion:                              0.0010000000

 Mix parameter (when DIIS does not apply):           0.2000000000
 Mixed ADIIS+SDIIS will be used                  
    Max number of expansion vectors:                10
    Pure ADIIS when Max([F,P]) is above              0.1000000000
    Pure SDIIS when Max([F,P]) is below              0.0010000000



 =================
 P R E C I S I O N  ***  (General: NumInt, NeglectFunctionTails, ...)  ***
 =================
  

 NumInt:           Target precision:                 4.0000000000
 -------           Initial precision:                4.0000000000
                   Min. precision (optimization):    4.0000000000

 Neglect Functions:          Basis functions:        0.1000000000E-05
 ------------------          Fit functions:          0.1000000000E-05



 ===========================
 L I N E A R   S C A L I N G
 ===========================
  

 Cut-off radii density fit:                        0.1000000000E-07
 Overlap cut-off criterion AO matrix elements:     0.1000000000E-05
 Cut-offs for Coulomb potential and fitted density:0.1000000000E-07
 Cut-off criterion for Coulomb multipole terms:    0.1000000000E-07
 Progressive Convergence parameter:                 0.000000000    
1
 ***************************************************************************************************



                                            ***************************
                                            *  C O M P U T A T I O N  *
                                            ***************************
  

 Number of elements of the density matrix on this node (used, total):       120       325



 ===========================================
 Numerical Integration : Fuzzy Cells (Becke)
 ===========================================
  
 Becke grid quality: NORMAL         
  
 Lebedev angular grid order:             min:  11 max:  23
 Nr. of radial points:                   min:  46 max:  49

 Total nr. of points:       5159
 Nr. of blocks:               41
 Block length:               126
 Nr. of dummy points:          7
 calculated EF potential in CalcConstantPotentials.f90
 calculated EF potential in CalcConstantPotentials.f90
 calculated EF potential in CalcConstantPotentials.f90
 calculated EF potential in CalcConstantPotentials.f90
 calculated EF potential in CalcConstantPotentials.f90


 Test of Precision of the Numerical Integration Grid
 ===================================================

 Integral of the Total Core Density:                   2.00000327362706
 Relative Error:                                       1.637E-06



 ========================
 Density Fitting (zlmFit)
 ========================
  
 ZlmFit Fit Quality: NORMAL         
  
 Max L-expansion:                        min:   5 max:   6
 Nr. of radial interpolation points:     min:  36 max:  42



 =====
 S C F  ***  ScaSCF  ***
 =====
  
 Initial density matrix is calculated as sum of fragments

 CYCLE    1
 SCF Error: norm([F,P])=      0.551363077343, max([F,P])=      0.252778065918
 orbitals (Q,E):
 ---------------
 A1 :1...10          ( 2.00    -1.0050)  ( 2.00    -0.4545)  ( 0.00    -0.1167)  ( 0.00     0.2639)
                     ( 0.00     0.3649)  ( 0.00     0.6778)  ( 0.00     0.9433)  ( 0.00     1.2566)
                     ( 0.00     1.5644)  ( 0.00     2.6958)
 A2 :1...2           ( 0.00     0.4240)  ( 0.00     1.4071)
 B1 :1...4           ( 2.00    -0.4066)  ( 0.00     0.3982)  ( 0.00     0.9143)  ( 0.00     1.3975)
 B2 :1...7           ( 2.00    -0.5504)  ( 0.00    -0.0473)  ( 0.00     0.3394)  ( 0.00     0.6125)
                     ( 0.00     1.0963)  ( 0.00     1.2378)  ( 0.00     2.7912)

 CYCLE    2
  SDIIS (wt  0.000):  0.6321  0.3679
 A-DIIS (wt  1.000):  0.0920  0.9080
  DIIS coefficients:  0.0920  0.9080
 SCF Error: norm([F,P])=      0.749241277756, max([F,P])=      0.322494391107
 orbitals (Q,E):
 ---------------
 A1 :1...3           ( 2.00    -0.6962)  ( 2.00    -0.1787)  ( 0.00    -0.0017)
 A2 :1...1           ( 0.00     0.4851)
 B1 :1...2           ( 2.00    -0.0870)  ( 0.00     0.5233)
 B2 :1...2           ( 2.00    -0.3491)  ( 0.00     0.0952)

 CYCLE    3
  SDIIS (wt  0.000):  0.0885  0.6218  0.2897
 A-DIIS (wt  1.000):  0.0000  0.7650  0.2350
  DIIS coefficients:  0.0000  0.7650  0.2350
 SCF Error: norm([F,P])=      1.562669077839, max([F,P])=      0.663167326339
 orbitals (Q,E):
 ---------------
 A1 :1...3           ( 2.00    -0.8156)  ( 2.00    -0.2733)  ( 0.00    -0.0491)
 A2 :1...1           ( 0.00     0.4753)
 B1 :1...2           ( 2.00    -0.2051)  ( 0.00     0.4801)
 B2 :1...2           ( 2.00    -0.4129)  ( 0.00     0.0390)

 CYCLE    4
  SDIIS (wt  0.000):  0.3081 -0.0729  0.7648
 A-DIIS (wt  1.000):  0.3130  0.0000  0.6870
  DIIS coefficients:  0.3130  0.0000  0.6870
 SCF Error: norm([F,P])=      0.446705547375, max([F,P])=      0.195518643696
 orbitals (Q,E):
 ---------------
 A1 :1...3           ( 2.00    -0.8821)  ( 2.00    -0.3322)  ( 0.00    -0.0713)
 A2 :1...1           ( 0.00     0.4674)
 B1 :1...2           ( 2.00    -0.2726)  ( 0.00     0.4559)
 B2 :1...2           ( 2.00    -0.4564)  ( 0.00     0.0089)

 CYCLE    5
  SDIIS (wt  0.252):  0.0179 -0.0202  0.3506  0.6517
 A-DIIS (wt  0.748):  0.0000  0.0000  0.1918  0.8082
  DIIS coefficients:  0.0045 -0.0051  0.2319  0.7687
 SCF Error: norm([F,P])=      0.172762447860, max([F,P])=      0.075014240010
 orbitals (Q,E):
 ---------------
 A1 :1...3           ( 2.00    -0.8500)  ( 2.00    -0.3045)  ( 0.00    -0.0623)
 A2 :1...1           ( 0.00     0.4708)
 B1 :1...2           ( 2.00    -0.2406)  ( 0.00     0.4662)
 B2 :1...2           ( 2.00    -0.4351)  ( 0.00     0.0207)

 CYCLE    6
  SDIIS (wt  0.557): -0.0068 -0.0030 -0.0170  0.3595  0.6673
 A-DIIS (wt  0.443):  0.0000  0.0000  0.0000  0.3255  0.6745
  DIIS coefficients: -0.0038 -0.0017 -0.0095  0.3444  0.6705
 SCF Error: norm([F,P])=      0.103791462364, max([F,P])=      0.044846617056
 orbitals (Q,E):
 ---------------
 A1 :1...3           ( 2.00    -0.8638)  ( 2.00    -0.3164)  ( 0.00    -0.0667)
 A2 :1...1           ( 0.00     0.4690)
 B1 :1...2           ( 2.00    -0.2543)  ( 0.00     0.4614)
 B2 :1...2           ( 2.00    -0.4442)  ( 0.00     0.0150)

 CYCLE    7
  SDIIS (wt  0.945): -0.0034  0.0002  0.0004  0.0056  0.1091  0.8882
 A-DIIS (wt  0.055):  0.0000  0.0000  0.0000  0.0000  0.0000  1.0000
  DIIS coefficients: -0.0032  0.0002  0.0004  0.0053  0.1030  0.8944
 SCF Error: norm([F,P])=      0.015077444645, max([F,P])=      0.006492549453
 orbitals (Q,E):
 ---------------
 A1 :1...3           ( 2.00    -0.8619)  ( 2.00    -0.3147)  ( 0.00    -0.0662)
 A2 :1...1           ( 0.00     0.4692)
 B1 :1...2           ( 2.00    -0.2524)  ( 0.00     0.4620)
 B2 :1...2           ( 2.00    -0.4429)  ( 0.00     0.0157)

 CYCLE    8
  SDIIS (wt  1.000): -0.0001  0.0001 -0.0004 -0.0043  0.0037  0.1824  0.8186
  DIIS coefficients: -0.0001  0.0001 -0.0004 -0.0043  0.0037  0.1824  0.8186
 SCF Error: norm([F,P])=      0.002024730368, max([F,P])=      0.000867431295
 orbitals (Q,E):
 ---------------
 A1 :1...3           ( 2.00    -0.8621)  ( 2.00    -0.3149)  ( 0.00    -0.0662)
 A2 :1...1           ( 0.00     0.4692)
 B1 :1...2           ( 2.00    -0.2526)  ( 0.00     0.4620)
 B2 :1...2           ( 2.00    -0.4431)  ( 0.00     0.0156)

 CYCLE    9
  SDIIS (wt  1.000):  0.0000  0.0000 -0.0000 -0.0002 -0.0007  0.0018  0.0395  0.9596
  DIIS coefficients:  0.0000  0.0000 -0.0000 -0.0002 -0.0007  0.0018  0.0395  0.9596
 SCF Error: norm([F,P])=      0.000016639038, max([F,P])=      0.000007047470
 orbitals (Q,E):
 ---------------
 A1 :1...3           ( 2.00    -0.8621)  ( 2.00    -0.3149)  ( 0.00    -0.0662)
 A2 :1...1           ( 0.00     0.4692)
 B1 :1...2           ( 2.00    -0.2526)  ( 0.00     0.4620)
 B2 :1...2           ( 2.00    -0.4431)  ( 0.00     0.0156)

 CYCLE   10
  SDIIS (wt  1.000):  0.0000  0.0000 -0.0000  0.0000 -0.0000 -0.0002  0.0013  0.0457  0.9531
  DIIS coefficients:  0.0000  0.0000 -0.0000  0.0000 -0.0000 -0.0002  0.0013  0.0457  0.9531
 SCF Error: norm([F,P])=      0.000000249352, max([F,P])=      0.000000089407
 orbitals (Q,E):
 ---------------
 A1 :1...3           ( 2.00    -0.8621)  ( 2.00    -0.3149)  ( 0.00    -0.0662)
 A2 :1...1           ( 0.00     0.4692)
 B1 :1...2           ( 2.00    -0.2526)  ( 0.00     0.4620)
 B2 :1...2           ( 2.00    -0.4431)  ( 0.00     0.0156)

 SCF CONVERGED

 CYCLE   11
 *** Using FIT density in Focky
  SDIIS (wt  1.000): -0.0000 -0.0000 -0.0000 -0.0007  0.0178  0.9829
  DIIS coefficients: -0.0000 -0.0000 -0.0000 -0.0007  0.0178  0.9829
 SCF Error: norm([F,P])=      0.000000013139, max([F,P])=      0.000000005765
 orbitals (Q,E):
 ---------------
 A1 :1...10          ( 2.00    -0.8621)  ( 2.00    -0.3149)  ( 0.00    -0.0662)  ( 0.00     0.3011)
                     ( 0.00     0.4279)  ( 0.00     0.7436)  ( 0.00     1.0577)  ( 0.00     1.3675)
                     ( 0.00     1.6719)  ( 0.00     2.8076)
 A2 :1...2           ( 0.00     0.4692)  ( 0.00     1.5206)
 B1 :1...4           ( 2.00    -0.2526)  ( 0.00     0.4620)  ( 0.00     1.0342)  ( 0.00     1.5080)
 B2 :1...7           ( 2.00    -0.4431)  ( 0.00     0.0156)  ( 0.00     0.3841)  ( 0.00     0.6623)
                     ( 0.00     1.1549)  ( 0.00     1.3371)  ( 0.00     2.8948)


 Fit test: (difference of exact and fit density, squared integrated, result summed over spins)
         SCF:                                          0.00004423534375

 Gross Charges per Atom (Z minus electrons)
 ==========================================
             0.3469    0.3469   -0.6939
 Net Total:  0.00000000



 =================================================================
 M U L T I P O L E   D E R I V E D   C H A R G E   A N A L Y S I S
 =================================================================

 See: M. Swart, P.Th. van Duijnen, J.G. Snijders, J.Comput.Chem., (2001), p. 79-88.

 --------------------------------------- 
 Multipole derived atomic charges (a.u.)
 --------------------------------------- 

        Atom    Level:     MDC-m        MDC-d        MDC-q
 ---------------------------------------------------------
     1     H            0.153858     0.274492     0.320747
     2     H            0.153858     0.274492     0.320747
     3     O           -0.307716    -0.548985    -0.641494
 gdimqm lrsp F
 gdimqm exclclfld F


 ======  dij

  column           1                   2                   3
  row   
    1    0.00000000000000E+00  0.00000000000000E+00  0.00000000000000E+00
    2    0.00000000000000E+00  0.00000000000000E+00  0.00000000000000E+00
    3    0.00000000000000E+00  0.00000000000000E+00  0.00000000000000E+00
    4    1.12892505609200E+00  3.88595967316146E-01  0.00000000000000E+00
    5    7.80975409374287E-01  1.45526353907290E-01  0.00000000000000E+00
    6    0.00000000000000E+00  0.00000000000000E+00  0.00000000000000E+00
    7    0.00000000000000E+00  3.63700560599097E-01  0.00000000000000E+00
    8    0.00000000000000E+00  0.00000000000000E+00  3.10008615574634E-03
    9    0.00000000000000E+00  1.12892505609200E+00  0.00000000000000E+00
   10    0.00000000000000E+00  7.80975409374287E-01  0.00000000000000E+00
   11    0.00000000000000E+00  0.00000000000000E+00  0.00000000000000E+00
   12    0.00000000000000E+00  0.00000000000000E+00  0.00000000000000E+00
   13    0.00000000000000E+00  0.00000000000000E+00  3.10008615574634E-03
   14    0.00000000000000E+00 -3.63700560599099E-01  0.00000000000000E+00
   15    0.00000000000000E+00  0.00000000000000E+00  0.00000000000000E+00
   16    0.00000000000000E+00  0.00000000000000E+00  0.00000000000000E+00
   17    0.00000000000000E+00  0.00000000000000E+00  0.00000000000000E+00
   18    3.88595967316146E-01  0.00000000000000E+00  0.00000000000000E+00
   19    0.00000000000000E+00  0.00000000000000E+00  4.87070903106452E-01
   20    0.00000000000000E+00  0.00000000000000E+00  0.00000000000000E+00
   21    0.00000000000000E+00  0.00000000000000E+00  0.00000000000000E+00
   22    0.00000000000000E+00  0.00000000000000E+00  0.00000000000000E+00
   23    0.00000000000000E+00  0.00000000000000E+00  0.00000000000000E+00
   24    1.45526353907290E-01  0.00000000000000E+00  4.87070903106452E-01
   25    0.00000000000000E+00  0.00000000000000E+00  0.00000000000000E+00
 *** Using NEW gradient routines ***

 efield gradient after fd_potentials
                    H          0.000000       0.000000       0.000000
                    H          0.000000       0.000000       0.000000
                    O          0.000000       0.000000       0.000000

 efield gradient after TI in calc_gradient
                    H          0.000000       0.000000       0.000000
                    H          0.000000       0.000000       0.000000
                    O          0.000000       0.000000       0.000000


 Geometry CYCLE 1
 ==============

 Energy gradients wrt nuclear displacements
 ==========================================

     Atom      Cartesian (a.u./angstrom)
                 X         Y         Z
 ----------------------------------------
     1 H    -0.000000 -0.175364  0.062503
     2 H     0.000000  0.175364  0.062503
     3 O    -0.000000  0.000000 -0.125007
 ----------------------------------------

----------------------------------------------------------------------
Geometry Convergence after Step   1       (Hartree/Angstrom,Angstrom)
----------------------------------------------------------------------
current energy                               -0.46344134 Hartree
energy change                      -0.46344134     0.00100000    F
constrained gradient max            0.17536356     0.00100000    F
constrained gradient rms            0.09715092     0.00066667    F
gradient max                        0.17536356
gradient rms                        0.09715092
cart. step max                      0.14736237     0.01000000    F
cart. step rms                      0.06964782     0.00666667    F



 Coordinates (Cartesian)
 =======================

     Atom                    bohr                                 angstrom                 Geometric Variables
                   X           Y           Z              X           Y           Z       (0:frozen, *:LT par.)
 --------------------------------------------------------------------------------------------------------------
     1 H      -0.000000   -1.611252    1.172798      -0.000000   -0.852638    0.620618      1       2       3
     2 H       0.000000    1.611252    1.172798       0.000000    0.852638    0.620618      4       5       6
     3 O       0.000000    0.000000   -0.023197       0.000000    0.000000   -0.012276      7       8       9
 --------------------------------------------------------------------------------------------------------------

 Number of elements of the density matrix on this node (used, total):       120       325



 ===========================================
 Numerical Integration : Fuzzy Cells (Becke)
 ===========================================
  
 Becke grid quality: NORMAL         
  
 Lebedev angular grid order:             min:  11 max:  23
 Nr. of radial points:                   min:  46 max:  49

 Total nr. of points:       5160
 Nr. of blocks:               41
 Block length:               126
 Nr. of dummy points:          6
 calculated EF potential in CalcConstantPotentials.f90
 calculated EF potential in CalcConstantPotentials.f90
 calculated EF potential in CalcConstantPotentials.f90
 calculated EF potential in CalcConstantPotentials.f90
 calculated EF potential in CalcConstantPotentials.f90


 Test of Precision of the Numerical Integration Grid
 ===================================================

 Integral of the Total Core Density:                   1.99999908835824
 Relative Error:                                      -4.558E-07



 ========================
 Density Fitting (zlmFit)
 ========================
  
 ZlmFit Fit Quality: NORMAL         
  
 Max L-expansion:                        min:   5 max:   6
 Nr. of radial interpolation points:     min:  36 max:  42



 =====
 S C F  ***  ScaSCF  ***
 =====
  
 Initial density matrix is taken from previous geometry

 CYCLE    1
 SCF Error: norm([F,P])=      0.098287285445, max([F,P])=      0.036948214365
 orbitals (Q,E):
 ---------------
 A1 :1...10          ( 2.00    -0.8547)  ( 2.00    -0.3022)  ( 0.00     0.0027)  ( 0.00     0.3745)
                     ( 0.00     0.4518)  ( 0.00     0.8353)  ( 0.00     1.1206)  ( 0.00     1.4598)
                     ( 0.00     1.8194)  ( 0.00     2.9323)
 A2 :1...2           ( 0.00     0.5462)  ( 0.00     1.5961)
 B1 :1...4           ( 2.00    -0.2228)  ( 0.00     0.5101)  ( 0.00     1.0502)  ( 0.00     1.6767)
 B2 :1...7           ( 2.00    -0.4242)  ( 0.00     0.0845)  ( 0.00     0.4110)  ( 0.00     0.8090)
                     ( 0.00     1.3157)  ( 0.00     1.3674)  ( 0.00     3.1274)

 CYCLE    2
   MIX coefficients:  0.8000  0.2000
 SCF Error: norm([F,P])=      0.046385024503, max([F,P])=      0.019494610121
 orbitals (Q,E):
 ---------------
 A1 :1...3           ( 2.00    -0.8655)  ( 2.00    -0.3108)  ( 0.00    -0.0045)
 A2 :1...1           ( 0.00     0.5383)
 B1 :1...2           ( 2.00    -0.2326)  ( 0.00     0.5019)
 B2 :1...2           ( 2.00    -0.4337)  ( 0.00     0.0776)

 CYCLE    3
  SDIIS (wt  0.000): -1.4802  2.4802
 A-DIIS (wt  1.000):  0.0000  1.0000
  DIIS coefficients:  0.0000  1.0000
 SCF Error: norm([F,P])=      0.030520627505, max([F,P])=      0.013775281201
 orbitals (Q,E):
 ---------------
 A1 :1...3           ( 2.00    -0.9044)  ( 2.00    -0.3418)  ( 0.00    -0.0319)
 A2 :1...1           ( 0.00     0.5079)
 B1 :1...2           ( 2.00    -0.2677)  ( 0.00     0.4709)
 B2 :1...2           ( 2.00    -0.4688)  ( 0.00     0.0514)

 CYCLE    4
  SDIIS (wt  0.932):  1.4504 -1.5344  1.0840
 A-DIIS (wt  0.068):  0.0000  0.1576  0.8424
  DIIS coefficients:  1.3522 -1.4198  1.0676
 SCF Error: norm([F,P])=      0.021669179005, max([F,P])=      0.007705053674
 orbitals (Q,E):
 ---------------
 A1 :1...3           ( 2.00    -0.8991)  ( 2.00    -0.3397)  ( 0.00    -0.0291)
 A2 :1...1           ( 0.00     0.5104)
 B1 :1...2           ( 2.00    -0.2639)  ( 0.00     0.4738)
 B2 :1...2           ( 2.00    -0.4648)  ( 0.00     0.0539)

 CYCLE    5
  SDIIS (wt  1.000):  0.2644 -0.3213  0.1492  0.9078
  DIIS coefficients:  0.2644 -0.3213  0.1492  0.9078
 SCF Error: norm([F,P])=      0.000844489794, max([F,P])=      0.000341351214
 orbitals (Q,E):
 ---------------
 A1 :1...3           ( 2.00    -0.8989)  ( 2.00    -0.3394)  ( 0.00    -0.0289)
 A2 :1...1           ( 0.00     0.5106)
 B1 :1...2           ( 2.00    -0.2637)  ( 0.00     0.4740)
 B2 :1...2           ( 2.00    -0.4646)  ( 0.00     0.0541)

 CYCLE    6
  SDIIS (wt  1.000):  0.0013 -0.0013  0.0015  0.0250  0.9735
  DIIS coefficients:  0.0013 -0.0013  0.0015  0.0250  0.9735
 SCF Error: norm([F,P])=      0.000024811759, max([F,P])=      0.000008483825
 orbitals (Q,E):
 ---------------
 A1 :1...3           ( 2.00    -0.8989)  ( 2.00    -0.3394)  ( 0.00    -0.0289)
 A2 :1...1           ( 0.00     0.5106)
 B1 :1...2           ( 2.00    -0.2637)  ( 0.00     0.4740)
 B2 :1...2           ( 2.00    -0.4646)  ( 0.00     0.0541)

 CYCLE    7
  SDIIS (wt  1.000): -0.0005  0.0007 -0.0003  0.0000  0.1398  0.8603
  DIIS coefficients: -0.0005  0.0007 -0.0003  0.0000  0.1398  0.8603
 SCF Error: norm([F,P])=      0.000002170355, max([F,P])=      0.000000878415
 orbitals (Q,E):
 ---------------
 A1 :1...3           ( 2.00    -0.8989)  ( 2.00    -0.3394)  ( 0.00    -0.0289)
 A2 :1...1           ( 0.00     0.5106)
 B1 :1...2           ( 2.00    -0.2637)  ( 0.00     0.4740)
 B2 :1...2           ( 2.00    -0.4646)  ( 0.00     0.0541)

 SCF CONVERGED

 CYCLE    8
 *** Using FIT density in Focky
  SDIIS (wt  1.000): -0.0001  0.0001 -0.0000  0.0000  0.0113  0.0899  0.8987
  DIIS coefficients: -0.0001  0.0001 -0.0000  0.0000  0.0113  0.0899  0.8987
 SCF Error: norm([F,P])=      0.000000203334, max([F,P])=      0.000000070052
 orbitals (Q,E):
 ---------------
 A1 :1...10          ( 2.00    -0.8989)  ( 2.00    -0.3394)  ( 0.00    -0.0289)  ( 0.00     0.3390)
                     ( 0.00     0.4181)  ( 0.00     0.8016)  ( 0.00     1.0824)  ( 0.00     1.4244)
                     ( 0.00     1.7810)  ( 0.00     2.8934)
 A2 :1...2           ( 0.00     0.5106)  ( 0.00     1.5599)
 B1 :1...4           ( 2.00    -0.2637)  ( 0.00     0.4740)  ( 0.00     1.0145)  ( 0.00     1.6372)
 B2 :1...7           ( 2.00    -0.4646)  ( 0.00     0.0541)  ( 0.00     0.3782)  ( 0.00     0.7748)
                     ( 0.00     1.2813)  ( 0.00     1.3328)  ( 0.00     3.0869)


 Fit test: (difference of exact and fit density, squared integrated, result summed over spins)
         SCF:                                          0.00007280886334

 Gross Charges per Atom (Z minus electrons)
 ==========================================
             0.3237    0.3237   -0.6474
 Net Total: -0.00000000



 =================================================================
 M U L T I P O L E   D E R I V E D   C H A R G E   A N A L Y S I S
 =================================================================

 See: M. Swart, P.Th. van Duijnen, J.G. Snijders, J.Comput.Chem., (2001), p. 79-88.

 --------------------------------------- 
 Multipole derived atomic charges (a.u.)
 --------------------------------------- 

        Atom    Level:     MDC-m        MDC-d        MDC-q
 ---------------------------------------------------------
     1     H            0.118199     0.295398     0.334398
     2     H            0.118199     0.295398     0.334398
     3     O           -0.236399    -0.590796    -0.668796
 gdimqm lrsp F
 gdimqm exclclfld F


 ======  dij

  column           1                   2                   3
  row   
    1    0.00000000000000E+00  0.00000000000000E+00  0.00000000000000E+00
    2    0.00000000000000E+00  0.00000000000000E+00  0.00000000000000E+00
    3    0.00000000000000E+00  0.00000000000000E+00  0.00000000000000E+00
    4    1.12892505609200E+00  5.01447080012162E-01  0.00000000000000E+00
    5    7.80975409374287E-01  2.15236670428461E-01  0.00000000000000E+00
    6    0.00000000000000E+00  0.00000000000000E+00  0.00000000000000E+00
    7    0.00000000000000E+00  4.55516405583638E-01  0.00000000000000E+00
    8    0.00000000000000E+00  0.00000000000000E+00  3.98411951388930E-03
    9    0.00000000000000E+00  1.12892505609200E+00  0.00000000000000E+00
   10    0.00000000000000E+00  7.80975409374287E-01  0.00000000000000E+00
   11    0.00000000000000E+00  0.00000000000000E+00  0.00000000000000E+00
   12    0.00000000000000E+00  0.00000000000000E+00  0.00000000000000E+00
   13    0.00000000000000E+00  0.00000000000000E+00  3.98411951388930E-03
   14    0.00000000000000E+00 -4.55516405583638E-01  0.00000000000000E+00
   15    0.00000000000000E+00  0.00000000000000E+00  0.00000000000000E+00
   16    0.00000000000000E+00  0.00000000000000E+00  0.00000000000000E+00
   17    0.00000000000000E+00  0.00000000000000E+00  0.00000000000000E+00
   18    5.01447080012162E-01  0.00000000000000E+00  0.00000000000000E+00
   19    0.00000000000000E+00  0.00000000000000E+00  5.43469346170470E-01
   20    0.00000000000000E+00  0.00000000000000E+00  0.00000000000000E+00
   21    0.00000000000000E+00  0.00000000000000E+00  0.00000000000000E+00
   22    0.00000000000000E+00  0.00000000000000E+00  0.00000000000000E+00
   23    0.00000000000000E+00  0.00000000000000E+00  0.00000000000000E+00
   24    2.15236670428461E-01  0.00000000000000E+00  5.43469346170470E-01
   25    0.00000000000000E+00  0.00000000000000E+00  0.00000000000000E+00
 *** Using NEW gradient routines ***

 efield gradient after fd_potentials
                    H          0.000000       0.000000       0.000000
                    H          0.000000       0.000000       0.000000
                    O          0.000000       0.000000       0.000000

 efield gradient after TI in calc_gradient
                    H          0.000000       0.000000       0.000000
                    H          0.000000       0.000000       0.000000
                    O          0.000000       0.000000       0.000000


 Geometry CYCLE 2
 ==============

 Energy gradients wrt nuclear displacements
 ==========================================

     Atom      Cartesian (a.u./angstrom)
                 X         Y         Z
 ----------------------------------------
     1 H    -0.000000 -0.096019  0.051677
     2 H     0.000000  0.096019  0.051677
     3 O     0.000000  0.000000 -0.103355
 ----------------------------------------

 dE(predicted):    -0.18274E-01, dE(actual):     0.00000E+00, Trust radius:    0.692820, all in a.u.

----------------------------------------------------------------------
Geometry Convergence after Step   2       (Hartree/Angstrom,Angstrom)
----------------------------------------------------------------------
current energy                               -0.50283252 Hartree
energy change                      -0.03939118     0.00100000    F
constrained gradient max            0.10335462     0.00100000    F
constrained gradient rms            0.06188025     0.00066667    F
gradient max                        0.10335462
gradient rms                        0.06188025
cart. step max                      0.16033990     0.01000000    F
cart. step rms                      0.07710141     0.00666667    F



 Coordinates (Cartesian)
 =======================

     Atom                    bohr                                 angstrom                 Geometric Variables
                   X           Y           Z              X           Y           Z       (0:frozen, *:LT par.)
 --------------------------------------------------------------------------------------------------------------
     1 H      -0.000000   -1.308253    1.137580      -0.000000   -0.692298    0.601981      1       2       3
     2 H       0.000000    1.308253    1.137580       0.000000    0.692298    0.601981      4       5       6
     3 O       0.000000    0.000000    0.047238       0.000000    0.000000    0.024997      7       8       9
 --------------------------------------------------------------------------------------------------------------

 Number of elements of the density matrix on this node (used, total):       120       325



 ===========================================
 Numerical Integration : Fuzzy Cells (Becke)
 ===========================================
  
 Becke grid quality: NORMAL         
  
 Lebedev angular grid order:             min:  11 max:  23
 Nr. of radial points:                   min:  46 max:  49

 Total nr. of points:       5157
 Nr. of blocks:               41
 Block length:               126
 Nr. of dummy points:          9
 calculated EF potential in CalcConstantPotentials.f90
 calculated EF potential in CalcConstantPotentials.f90
 calculated EF potential in CalcConstantPotentials.f90
 calculated EF potential in CalcConstantPotentials.f90
 calculated EF potential in CalcConstantPotentials.f90


 Test of Precision of the Numerical Integration Grid
 ===================================================

 Integral of the Total Core Density:                   2.00000062358761
 Relative Error:                                       3.118E-07



 ========================
 Density Fitting (zlmFit)
 ========================
  
 ZlmFit Fit Quality: NORMAL         
  
 Max L-expansion:                        min:   5 max:   6
 Nr. of radial interpolation points:     min:  36 max:  42



 =====
 S C F  ***  ScaSCF  ***
 =====
  
 Initial density matrix is taken from previous geometry

 CYCLE    1
 SCF Error: norm([F,P])=      0.194043641041, max([F,P])=      0.062728689773
 orbitals (Q,E):
 ---------------
 A1 :1...10          ( 2.00    -0.9231)  ( 2.00    -0.3302)  ( 0.00     0.0410)  ( 0.00     0.4473)
                     ( 0.00     0.4580)  ( 0.00     0.9073)  ( 0.00     1.2518)  ( 0.00     1.5594)
                     ( 0.00     1.9671)  ( 0.00     3.0129)
 A2 :1...2           ( 0.00     0.6121)  ( 0.00     1.6896)
 B1 :1...4           ( 2.00    -0.2387)  ( 0.00     0.5518)  ( 0.00     1.0303)  ( 0.00     1.8441)
 B2 :1...7           ( 2.00    -0.4692)  ( 0.00     0.1341)  ( 0.00     0.4188)  ( 0.00     0.9454)
                     ( 0.00     1.3189)  ( 0.00     1.6008)  ( 0.00     3.3739)

 CYCLE    2
   MIX coefficients:  0.8000  0.2000
 SCF Error: norm([F,P])=      0.074854563093, max([F,P])=      0.030774802637
 orbitals (Q,E):
 ---------------
 A1 :1...3           ( 2.00    -0.9319)  ( 2.00    -0.3349)  ( 0.00     0.0340)
 A2 :1...1           ( 0.00     0.6031)
 B1 :1...2           ( 2.00    -0.2457)  ( 0.00     0.5436)
 B2 :1...2           ( 2.00    -0.4768)  ( 0.00     0.1281)

 CYCLE    3
  SDIIS (wt  0.000): -1.3249  2.3249
 A-DIIS (wt  1.000):  0.0000  1.0000
  DIIS coefficients:  0.0000  1.0000
 SCF Error: norm([F,P])=      0.046100596207, max([F,P])=      0.020733391981
 orbitals (Q,E):
 ---------------
 A1 :1...3           ( 2.00    -0.9713)  ( 2.00    -0.3595)  ( 0.00     0.0057)
 A2 :1...1           ( 0.00     0.5673)
 B1 :1...2           ( 2.00    -0.2790)  ( 0.00     0.5095)
 B2 :1...2           ( 2.00    -0.5110)  ( 0.00     0.1031)

 CYCLE    4
  SDIIS (wt  0.874):  1.8149 -2.0000  1.1851
 A-DIIS (wt  0.126):  0.0000  0.3902  0.6098
  DIIS coefficients:  1.5871 -1.7000  1.1128
 SCF Error: norm([F,P])=      0.041154996226, max([F,P])=      0.013427695357
 orbitals (Q,E):
 ---------------
 A1 :1...3           ( 2.00    -0.9712)  ( 2.00    -0.3651)  ( 0.00     0.0071)
 A2 :1...1           ( 0.00     0.5693)
 B1 :1...2           ( 2.00    -0.2819)  ( 0.00     0.5101)
 B2 :1...2           ( 2.00    -0.5117)  ( 0.00     0.1036)

 CYCLE    5
  SDIIS (wt  0.990): -0.4713  0.6111 -0.1146  0.9748
 A-DIIS (wt  0.010):  0.0000  0.0000  0.0000  1.0000
  DIIS coefficients: -0.4664  0.6047 -0.1134  0.9751
 SCF Error: norm([F,P])=      0.005010756097, max([F,P])=      0.002037931846
 orbitals (Q,E):
 ---------------
 A1 :1...3           ( 2.00    -0.9704)  ( 2.00    -0.3642)  ( 0.00     0.0073)
 A2 :1...1           ( 0.00     0.5696)
 B1 :1...2           ( 2.00    -0.2810)  ( 0.00     0.5106)
 B2 :1...2           ( 2.00    -0.5111)  ( 0.00     0.1039)

 CYCLE    6
  SDIIS (wt  1.000): -0.0261  0.0338 -0.0056  0.0800  0.9178
  DIIS coefficients: -0.0261  0.0338 -0.0056  0.0800  0.9178
 SCF Error: norm([F,P])=      0.000120449667, max([F,P])=      0.000041752710
 orbitals (Q,E):
 ---------------
 A1 :1...3           ( 2.00    -0.9704)  ( 2.00    -0.3642)  ( 0.00     0.0073)
 A2 :1...1           ( 0.00     0.5696)
 B1 :1...2           ( 2.00    -0.2810)  ( 0.00     0.5106)
 B2 :1...2           ( 2.00    -0.5111)  ( 0.00     0.1039)

 CYCLE    7
  SDIIS (wt  1.000):  0.0007 -0.0008  0.0005  0.0018  0.0969  0.9009
  DIIS coefficients:  0.0007 -0.0008  0.0005  0.0018  0.0969  0.9009
 SCF Error: norm([F,P])=      0.000005734895, max([F,P])=      0.000002094742
 orbitals (Q,E):
 ---------------
 A1 :1...3           ( 2.00    -0.9704)  ( 2.00    -0.3642)  ( 0.00     0.0073)
 A2 :1...1           ( 0.00     0.5696)
 B1 :1...2           ( 2.00    -0.2810)  ( 0.00     0.5106)
 B2 :1...2           ( 2.00    -0.5111)  ( 0.00     0.1039)

 CYCLE    8
  SDIIS (wt  1.000):  0.0000 -0.0000  0.0000  0.0000  0.0030  0.0226  0.9744
  DIIS coefficients:  0.0000 -0.0000  0.0000  0.0000  0.0030  0.0226  0.9744
 SCF Error: norm([F,P])=      0.000000105608, max([F,P])=      0.000000038801
 orbitals (Q,E):
 ---------------
 A1 :1...3           ( 2.00    -0.9704)  ( 2.00    -0.3642)  ( 0.00     0.0073)
 A2 :1...1           ( 0.00     0.5696)
 B1 :1...2           ( 2.00    -0.2810)  ( 0.00     0.5106)
 B2 :1...2           ( 2.00    -0.5111)  ( 0.00     0.1039)

 SCF CONVERGED

 CYCLE    9
 *** Using FIT density in Focky
  SDIIS (wt  1.000):  0.0000 -0.0000  0.0000 -0.0000  0.0001 -0.0000  0.0525  0.9474
  DIIS coefficients:  0.0000 -0.0000  0.0000 -0.0000  0.0001 -0.0000  0.0525  0.9474
 SCF Error: norm([F,P])=      0.000000008162, max([F,P])=      0.000000003478
 orbitals (Q,E):
 ---------------
 A1 :1...10          ( 2.00    -0.9704)  ( 2.00    -0.3642)  ( 0.00     0.0073)  ( 0.00     0.4082)
                     ( 0.00     0.4203)  ( 0.00     0.8710)  ( 0.00     1.2085)  ( 0.00     1.5236)
                     ( 0.00     1.9304)  ( 0.00     2.9712)
 A2 :1...2           ( 0.00     0.5696)  ( 0.00     1.6516)
 B1 :1...4           ( 2.00    -0.2810)  ( 0.00     0.5106)  ( 0.00     0.9937)  ( 0.00     1.8022)
 B2 :1...7           ( 2.00    -0.5111)  ( 0.00     0.1039)  ( 0.00     0.3805)  ( 0.00     0.9094)
                     ( 0.00     1.2838)  ( 0.00     1.5619)  ( 0.00     3.3290)


 Fit test: (difference of exact and fit density, squared integrated, result summed over spins)
         SCF:                                          0.00013670066973

 Gross Charges per Atom (Z minus electrons)
 ==========================================
             0.2276    0.2276   -0.4553
 Net Total: -0.00000000



 =================================================================
 M U L T I P O L E   D E R I V E D   C H A R G E   A N A L Y S I S
 =================================================================

 See: M. Swart, P.Th. van Duijnen, J.G. Snijders, J.Comput.Chem., (2001), p. 79-88.

 --------------------------------------- 
 Multipole derived atomic charges (a.u.)
 --------------------------------------- 

        Atom    Level:     MDC-m        MDC-d        MDC-q
 ---------------------------------------------------------
     1     H            0.064710     0.325000     0.364406
     2     H            0.064710     0.325000     0.364406
     3     O           -0.129420    -0.649999    -0.728811
 gdimqm lrsp F
 gdimqm exclclfld F


 ======  dij

  column           1                   2                   3
  row   
    1    0.00000000000000E+00  0.00000000000000E+00  0.00000000000000E+00
    2    0.00000000000000E+00  0.00000000000000E+00  0.00000000000000E+00
    3    0.00000000000000E+00  0.00000000000000E+00  0.00000000000000E+00
    4    1.12892505609200E+00  6.43490071077868E-01  0.00000000000000E+00
    5    7.80975409374287E-01  3.16902876135578E-01  0.00000000000000E+00
    6    0.00000000000000E+00  0.00000000000000E+00  0.00000000000000E+00
    7    0.00000000000000E+00  5.40725566671863E-01  0.00000000000000E+00
    8    0.00000000000000E+00  0.00000000000000E+00  5.68170064675176E-03
    9    0.00000000000000E+00  1.12892505609200E+00  0.00000000000000E+00
   10    0.00000000000000E+00  7.80975409374287E-01  0.00000000000000E+00
   11    0.00000000000000E+00  0.00000000000000E+00  0.00000000000000E+00
   12    0.00000000000000E+00  0.00000000000000E+00  0.00000000000000E+00
   13    0.00000000000000E+00  0.00000000000000E+00  5.68170064675176E-03
   14    0.00000000000000E+00 -5.40725566671864E-01  0.00000000000000E+00
   15    0.00000000000000E+00  0.00000000000000E+00  0.00000000000000E+00
   16    0.00000000000000E+00  0.00000000000000E+00  0.00000000000000E+00
   17    0.00000000000000E+00  0.00000000000000E+00  0.00000000000000E+00
   18    6.43490071077868E-01  0.00000000000000E+00  0.00000000000000E+00
   19    0.00000000000000E+00  0.00000000000000E+00  6.26353583213573E-01
   20    0.00000000000000E+00  0.00000000000000E+00  0.00000000000000E+00
   21    0.00000000000000E+00  0.00000000000000E+00  0.00000000000000E+00
   22    0.00000000000000E+00  0.00000000000000E+00  0.00000000000000E+00
   23    0.00000000000000E+00  0.00000000000000E+00  0.00000000000000E+00
   24    3.16902876135578E-01  0.00000000000000E+00  6.26353583213573E-01
   25    0.00000000000000E+00  0.00000000000000E+00  0.00000000000000E+00
 *** Using NEW gradient routines ***

 efield gradient after fd_potentials
                    H          0.000000       0.000000       0.000000
                    H          0.000000       0.000000       0.000000
                    O          0.000000       0.000000       0.000000

 efield gradient after TI in calc_gradient
                    H          0.000000       0.000000       0.000000
                    H          0.000000       0.000000       0.000000
                    O          0.000000       0.000000       0.000000


 Geometry CYCLE 3
 ==============

 Energy gradients wrt nuclear displacements
 ==========================================

     Atom      Cartesian (a.u./angstrom)
                 X         Y         Z
 ----------------------------------------
     1 H     0.000000  0.157157 -0.100625
     2 H    -0.000000 -0.157157 -0.100625
     3 O    -0.000000  0.000000  0.201249
 ----------------------------------------
 Interpolation step length   0.11095472038844431     

 dE(predicted):    -0.12006E-01, dE(actual):     0.00000E+00, Trust radius:    0.110955, all in a.u.

----------------------------------------------------------------------
Geometry Convergence after Step   3       (Hartree/Angstrom,Angstrom)
----------------------------------------------------------------------
current energy                               -0.49883133 Hartree
energy change                       0.00400119     0.00100000    F
constrained gradient max            0.20124915     0.00100000    F
constrained gradient rms            0.11062881     0.00066667    F
gradient max                        0.20124915
gradient rms                        0.11062881
cart. step max                      0.03228523     0.01000000    F
cart. step rms                      0.01576233     0.00666667    F



 Coordinates (Cartesian)
 =======================

     Atom                    bohr                                 angstrom                 Geometric Variables
                   X           Y           Z              X           Y           Z       (0:frozen, *:LT par.)
 --------------------------------------------------------------------------------------------------------------
     1 H      -0.000000   -1.342907    1.168085      -0.000000   -0.710636    0.618124      1       2       3
     2 H       0.000000    1.342907    1.168085       0.000000    0.710636    0.618124      4       5       6
     3 O       0.000000    0.000000   -0.013772       0.000000    0.000000   -0.007288      7       8       9
 --------------------------------------------------------------------------------------------------------------

 Number of elements of the density matrix on this node (used, total):       120       325



 ===========================================
 Numerical Integration : Fuzzy Cells (Becke)
 ===========================================
  
 Becke grid quality: NORMAL         
  
 Lebedev angular grid order:             min:  11 max:  23
 Nr. of radial points:                   min:  46 max:  49

 Total nr. of points:       5156
 Nr. of blocks:               41
 Block length:               126
 Nr. of dummy points:         10
 calculated EF potential in CalcConstantPotentials.f90
 calculated EF potential in CalcConstantPotentials.f90
 calculated EF potential in CalcConstantPotentials.f90
 calculated EF potential in CalcConstantPotentials.f90
 calculated EF potential in CalcConstantPotentials.f90


 Test of Precision of the Numerical Integration Grid
 ===================================================

 Integral of the Total Core Density:                   2.00000402157132
 Relative Error:                                       2.011E-06



 ========================
 Density Fitting (zlmFit)
 ========================
  
 ZlmFit Fit Quality: NORMAL         
  
 Max L-expansion:                        min:   5 max:   6
 Nr. of radial interpolation points:     min:  36 max:  42



 =====
 S C F  ***  ScaSCF  ***
 =====
  
 Initial density matrix is taken from previous geometry

 CYCLE    1
 SCF Error: norm([F,P])=      0.068659682508, max([F,P])=      0.024755786332
 orbitals (Q,E):
 ---------------
 A1 :1...10          ( 2.00    -0.9651)  ( 2.00    -0.3754)  ( 0.00    -0.0118)  ( 0.00     0.3938)
                     ( 0.00     0.3949)  ( 0.00     0.8313)  ( 0.00     1.1502)  ( 0.00     1.4788)
                     ( 0.00     1.8630)  ( 0.00     2.9743)
 A2 :1...2           ( 0.00     0.5513)  ( 0.00     1.5971)
 B1 :1...4           ( 2.00    -0.2895)  ( 0.00     0.4774)  ( 0.00     0.9831)  ( 0.00     1.7573)
 B2 :1...7           ( 2.00    -0.5005)  ( 0.00     0.0840)  ( 0.00     0.3643)  ( 0.00     0.8917)
                     ( 0.00     1.2554)  ( 0.00     1.4863)  ( 0.00     3.2242)

 CYCLE    2
  SDIIS (wt  0.000):  0.0799  0.9201
 A-DIIS (wt  1.000):  0.0000  1.0000
  DIIS coefficients:  0.0000  1.0000
 SCF Error: norm([F,P])=      0.017921394697, max([F,P])=      0.008343888173
 orbitals (Q,E):
 ---------------
 A1 :1...3           ( 2.00    -0.9504)  ( 2.00    -0.3676)  ( 0.00    -0.0015)
 A2 :1...1           ( 0.00     0.5644)
 B1 :1...2           ( 2.00    -0.2769)  ( 0.00     0.4896)
 B2 :1...2           ( 2.00    -0.4870)  ( 0.00     0.0934)

 CYCLE    3
  SDIIS (wt  0.000): -0.0037  0.4446  0.5590
 A-DIIS (wt  1.000):  0.0000  0.3320  0.6680
  DIIS coefficients:  0.0000  0.3320  0.6680
 SCF Error: norm([F,P])=      0.014579517959, max([F,P])=      0.004833047702
 orbitals (Q,E):
 ---------------
 A1 :1...3           ( 2.00    -0.9496)  ( 2.00    -0.3645)  ( 0.00    -0.0019)
 A2 :1...1           ( 0.00     0.5637)
 B1 :1...2           ( 2.00    -0.2749)  ( 0.00     0.4896)
 B2 :1...2           ( 2.00    -0.4862)  ( 0.00     0.0934)

 CYCLE    4
  SDIIS (wt  0.962):  0.2103  0.4481  0.3416
 A-DIIS (wt  0.038):  0.0000  0.3581  0.6419
  DIIS coefficients:  0.2022  0.4447  0.3531
 SCF Error: norm([F,P])=      0.011564562958, max([F,P])=      0.004783554407
 orbitals (Q,E):
 ---------------
 A1 :1...3           ( 2.00    -0.9510)  ( 2.00    -0.3660)  ( 0.00    -0.0023)
 A2 :1...1           ( 0.00     0.5634)
 B1 :1...2           ( 2.00    -0.2765)  ( 0.00     0.4890)
 B2 :1...2           ( 2.00    -0.4874)  ( 0.00     0.0930)

 CYCLE    5
  SDIIS (wt  1.000):  0.0136  0.0536  0.0277  0.9051
  DIIS coefficients:  0.0136  0.0536  0.0277  0.9051
 SCF Error: norm([F,P])=      0.000358645880, max([F,P])=      0.000133306030
 orbitals (Q,E):
 ---------------
 A1 :1...3           ( 2.00    -0.9511)  ( 2.00    -0.3661)  ( 0.00    -0.0023)
 A2 :1...1           ( 0.00     0.5633)
 B1 :1...2           ( 2.00    -0.2765)  ( 0.00     0.4890)
 B2 :1...2           ( 2.00    -0.4874)  ( 0.00     0.0929)

 CYCLE    6
  SDIIS (wt  1.000):  0.0007  0.0035  0.0013  0.0937  0.9007
  DIIS coefficients:  0.0007  0.0035  0.0013  0.0937  0.9007
 SCF Error: norm([F,P])=      0.000010275128, max([F,P])=      0.000003662481
 orbitals (Q,E):
 ---------------
 A1 :1...3           ( 2.00    -0.9511)  ( 2.00    -0.3661)  ( 0.00    -0.0023)
 A2 :1...1           ( 0.00     0.5633)
 B1 :1...2           ( 2.00    -0.2765)  ( 0.00     0.4890)
 B2 :1...2           ( 2.00    -0.4874)  ( 0.00     0.0929)

 CYCLE    7
  SDIIS (wt  1.000): -0.0000 -0.0001 -0.0001  0.0005  0.0631  0.9366
  DIIS coefficients: -0.0000 -0.0001 -0.0001  0.0005  0.0631  0.9366
 SCF Error: norm([F,P])=      0.000000617439, max([F,P])=      0.000000263879
 orbitals (Q,E):
 ---------------
 A1 :1...3           ( 2.00    -0.9511)  ( 2.00    -0.3661)  ( 0.00    -0.0023)
 A2 :1...1           ( 0.00     0.5633)
 B1 :1...2           ( 2.00    -0.2765)  ( 0.00     0.4890)
 B2 :1...2           ( 2.00    -0.4874)  ( 0.00     0.0929)

 SCF CONVERGED

 CYCLE    8
 *** Using FIT density in Focky
  SDIIS (wt  1.000): -0.0000 -0.0000 -0.0000 -0.0001  0.0032  0.0665  0.9304
  DIIS coefficients: -0.0000 -0.0000 -0.0000 -0.0001  0.0032  0.0665  0.9304
 SCF Error: norm([F,P])=      0.000000071502, max([F,P])=      0.000000026337
 orbitals (Q,E):
 ---------------
 A1 :1...10          ( 2.00    -0.9511)  ( 2.00    -0.3661)  ( 0.00    -0.0023)  ( 0.00     0.4046)
                     ( 0.00     0.4056)  ( 0.00     0.8415)  ( 0.00     1.1626)  ( 0.00     1.4898)
                     ( 0.00     1.8731)  ( 0.00     2.9863)
 A2 :1...2           ( 0.00     0.5633)  ( 0.00     1.6090)
 B1 :1...4           ( 2.00    -0.2765)  ( 0.00     0.4890)  ( 0.00     0.9938)  ( 0.00     1.7692)
 B2 :1...7           ( 2.00    -0.4874)  ( 0.00     0.0929)  ( 0.00     0.3748)  ( 0.00     0.9024)
                     ( 0.00     1.2654)  ( 0.00     1.4973)  ( 0.00     3.2371)


 Fit test: (difference of exact and fit density, squared integrated, result summed over spins)
         SCF:                                          0.00011490650410

 Gross Charges per Atom (Z minus electrons)
 ==========================================
             0.2664    0.2664   -0.5328
 Net Total:  0.00000000



 =================================================================
 M U L T I P O L E   D E R I V E D   C H A R G E   A N A L Y S I S
 =================================================================

 See: M. Swart, P.Th. van Duijnen, J.G. Snijders, J.Comput.Chem., (2001), p. 79-88.

 --------------------------------------- 
 Multipole derived atomic charges (a.u.)
 --------------------------------------- 

        Atom    Level:     MDC-m        MDC-d        MDC-q
 ---------------------------------------------------------
     1     H            0.078110     0.312970     0.348636
     2     H            0.078110     0.312970     0.348636
     3     O           -0.156219    -0.625940    -0.697272
 gdimqm lrsp F
 gdimqm exclclfld F


 ======  dij

  column           1                   2                   3
  row   
    1    0.00000000000000E+00  0.00000000000000E+00  0.00000000000000E+00
    2    0.00000000000000E+00  0.00000000000000E+00  0.00000000000000E+00
    3    0.00000000000000E+00  0.00000000000000E+00  0.00000000000000E+00
    4    1.12892505609200E+00  6.26433532117795E-01  0.00000000000000E+00
    5    7.80975409374287E-01  3.03895871972178E-01  0.00000000000000E+00
    6    0.00000000000000E+00  0.00000000000000E+00  0.00000000000000E+00
    7    0.00000000000000E+00  5.32682805139089E-01  0.00000000000000E+00
    8    0.00000000000000E+00  0.00000000000000E+00  5.14308427714247E-03
    9    0.00000000000000E+00  1.12892505609200E+00  0.00000000000000E+00
   10    0.00000000000000E+00  7.80975409374287E-01  0.00000000000000E+00
   11    0.00000000000000E+00  0.00000000000000E+00  0.00000000000000E+00
   12    0.00000000000000E+00  0.00000000000000E+00  0.00000000000000E+00
   13    0.00000000000000E+00  0.00000000000000E+00  5.14308427714247E-03
   14    0.00000000000000E+00 -5.32682805139091E-01  0.00000000000000E+00
   15    0.00000000000000E+00  0.00000000000000E+00  0.00000000000000E+00
   16    0.00000000000000E+00  0.00000000000000E+00  0.00000000000000E+00
   17    0.00000000000000E+00  0.00000000000000E+00  0.00000000000000E+00
   18    6.26433532117795E-01  0.00000000000000E+00  0.00000000000000E+00
   19    0.00000000000000E+00  0.00000000000000E+00  6.02866780476031E-01
   20    0.00000000000000E+00  0.00000000000000E+00  0.00000000000000E+00
   21    0.00000000000000E+00  0.00000000000000E+00  0.00000000000000E+00
   22    0.00000000000000E+00  0.00000000000000E+00  0.00000000000000E+00
   23    0.00000000000000E+00  0.00000000000000E+00  0.00000000000000E+00
   24    3.03895871972178E-01  0.00000000000000E+00  6.02866780476031E-01
   25    0.00000000000000E+00  0.00000000000000E+00  0.00000000000000E+00
 *** Using NEW gradient routines ***

 efield gradient after fd_potentials
                    H          0.000000       0.000000       0.000000
                    H          0.000000       0.000000       0.000000
                    O          0.000000       0.000000       0.000000

 efield gradient after TI in calc_gradient
                    H          0.000000       0.000000       0.000000
                    H          0.000000       0.000000       0.000000
                    O          0.000000       0.000000       0.000000


 Geometry CYCLE 4
 ==============

 Energy gradients wrt nuclear displacements
 ==========================================

     Atom      Cartesian (a.u./angstrom)
                 X         Y         Z
 ----------------------------------------
     1 H    -0.000000  0.072253 -0.030418
     2 H     0.000000 -0.072253 -0.030418
     3 O     0.000000  0.000000  0.060836
 ----------------------------------------

 dE(predicted):    -0.32185E-02, dE(actual):     0.00000E+00, Trust radius:    0.221909, all in a.u.

----------------------------------------------------------------------
Geometry Convergence after Step   4       (Hartree/Angstrom,Angstrom)
----------------------------------------------------------------------
current energy                               -0.50916460 Hartree
energy change                      -0.01033327     0.00100000    F
constrained gradient max            0.07225276     0.00100000    F
constrained gradient rms            0.04215379     0.00066667    F
gradient max                        0.07225276
gradient rms                        0.04215379
cart. step max                      0.05345228     0.01000000    F
cart. step rms                      0.02599988     0.00666667    F



 Coordinates (Cartesian)
 =======================

     Atom                    bohr                                 angstrom                 Geometric Variables
                   X           Y           Z              X           Y           Z       (0:frozen, *:LT par.)
 --------------------------------------------------------------------------------------------------------------
     1 H      -0.000000   -1.443917    1.153252      -0.000000   -0.764088    0.610275      1       2       3
     2 H       0.000000    1.443917    1.153252       0.000000    0.764088    0.610275      4       5       6
     3 O       0.000000    0.000000    0.015893       0.000000    0.000000    0.008410      7       8       9
 --------------------------------------------------------------------------------------------------------------

 Number of elements of the density matrix on this node (used, total):       120       325



 ===========================================
 Numerical Integration : Fuzzy Cells (Becke)
 ===========================================
  
 Becke grid quality: NORMAL         
  
 Lebedev angular grid order:             min:  11 max:  23
 Nr. of radial points:                   min:  46 max:  49

 Total nr. of points:       5158
 Nr. of blocks:               41
 Block length:               126
 Nr. of dummy points:          8
 calculated EF potential in CalcConstantPotentials.f90
 calculated EF potential in CalcConstantPotentials.f90
 calculated EF potential in CalcConstantPotentials.f90
 calculated EF potential in CalcConstantPotentials.f90
 calculated EF potential in CalcConstantPotentials.f90


 Test of Precision of the Numerical Integration Grid
 ===================================================

 Integral of the Total Core Density:                   1.99999642434274
 Relative Error:                                      -1.788E-06



 ========================
 Density Fitting (zlmFit)
 ========================
  
 ZlmFit Fit Quality: NORMAL         
  
 Max L-expansion:                        min:   5 max:   6
 Nr. of radial interpolation points:     min:  36 max:  42



 =====
 S C F  ***  ScaSCF  ***
 =====
  
 Initial density matrix is taken from previous geometry

 CYCLE    1
 SCF Error: norm([F,P])=      0.045806454633, max([F,P])=      0.022993787202
 orbitals (Q,E):
 ---------------
 A1 :1...10          ( 2.00    -0.9451)  ( 2.00    -0.3614)  ( 0.00    -0.0129)  ( 0.00     0.3652)
                     ( 0.00     0.4126)  ( 0.00     0.8397)  ( 0.00     1.1251)  ( 0.00     1.4696)
                     ( 0.00     1.8583)  ( 0.00     2.9316)
 A2 :1...2           ( 0.00     0.5337)  ( 0.00     1.6026)
 B1 :1...4           ( 2.00    -0.2823)  ( 0.00     0.4860)  ( 0.00     0.9955)  ( 0.00     1.7177)
 B2 :1...7           ( 2.00    -0.4979)  ( 0.00     0.0788)  ( 0.00     0.3690)  ( 0.00     0.8444)
                     ( 0.00     1.2777)  ( 0.00     1.4381)  ( 0.00     3.2134)

 CYCLE    2
  SDIIS (wt  0.000):  0.0852  0.9148
 A-DIIS (wt  1.000):  0.0000  1.0000
  DIIS coefficients:  0.0000  1.0000
 SCF Error: norm([F,P])=      0.015110757621, max([F,P])=      0.004338922725
 orbitals (Q,E):
 ---------------
 A1 :1...3           ( 2.00    -0.9311)  ( 2.00    -0.3495)  ( 0.00    -0.0053)
 A2 :1...1           ( 0.00     0.5419)
 B1 :1...2           ( 2.00    -0.2694)  ( 0.00     0.4955)
 B2 :1...2           ( 2.00    -0.4873)  ( 0.00     0.0859)

 CYCLE    3
  SDIIS (wt  0.000):  0.0164  0.5810  0.4026
 A-DIIS (wt  1.000):  0.0000  0.5996  0.4004
  DIIS coefficients:  0.0000  0.5996  0.4004
 SCF Error: norm([F,P])=      0.021160923617, max([F,P])=      0.008957076457
 orbitals (Q,E):
 ---------------
 A1 :1...3           ( 2.00    -0.9348)  ( 2.00    -0.3525)  ( 0.00    -0.0063)
 A2 :1...1           ( 0.00     0.5411)
 B1 :1...2           ( 2.00    -0.2729)  ( 0.00     0.4939)
 B2 :1...2           ( 2.00    -0.4900)  ( 0.00     0.0847)

 CYCLE    4
  SDIIS (wt  0.997):  0.1829  0.1872  0.6299
 A-DIIS (wt  0.003):  0.0000  0.0000  1.0000
  DIIS coefficients:  0.1824  0.1867  0.6310
 SCF Error: norm([F,P])=      0.003846551194, max([F,P])=      0.001273109645
 orbitals (Q,E):
 ---------------
 A1 :1...3           ( 2.00    -0.9348)  ( 2.00    -0.3521)  ( 0.00    -0.0065)
 A2 :1...1           ( 0.00     0.5409)
 B1 :1...2           ( 2.00    -0.2727)  ( 0.00     0.4938)
 B2 :1...2           ( 2.00    -0.4899)  ( 0.00     0.0847)

 CYCLE    5
  SDIIS (wt  1.000):  0.0198  0.0150  0.1540  0.8113
  DIIS coefficients:  0.0198  0.0150  0.1540  0.8113
 SCF Error: norm([F,P])=      0.000545635117, max([F,P])=      0.000182028485
 orbitals (Q,E):
 ---------------
 A1 :1...3           ( 2.00    -0.9348)  ( 2.00    -0.3522)  ( 0.00    -0.0065)
 A2 :1...1           ( 0.00     0.5409)
 B1 :1...2           ( 2.00    -0.2728)  ( 0.00     0.4938)
 B2 :1...2           ( 2.00    -0.4900)  ( 0.00     0.0846)

 CYCLE    6
  SDIIS (wt  1.000):  0.0015  0.0008  0.0140  0.0811  0.9026
  DIIS coefficients:  0.0015  0.0008  0.0140  0.0811  0.9026
 SCF Error: norm([F,P])=      0.000010031834, max([F,P])=      0.000004730286
 orbitals (Q,E):
 ---------------
 A1 :1...3           ( 2.00    -0.9348)  ( 2.00    -0.3522)  ( 0.00    -0.0065)
 A2 :1...1           ( 0.00     0.5409)
 B1 :1...2           ( 2.00    -0.2728)  ( 0.00     0.4938)
 B2 :1...2           ( 2.00    -0.4900)  ( 0.00     0.0846)

 CYCLE    7
  SDIIS (wt  1.000): -0.0000 -0.0001  0.0002  0.0006  0.0837  0.9156
  DIIS coefficients: -0.0000 -0.0001  0.0002  0.0006  0.0837  0.9156
 SCF Error: norm([F,P])=      0.000001829675, max([F,P])=      0.000000607505
 orbitals (Q,E):
 ---------------
 A1 :1...3           ( 2.00    -0.9348)  ( 2.00    -0.3522)  ( 0.00    -0.0065)
 A2 :1...1           ( 0.00     0.5409)
 B1 :1...2           ( 2.00    -0.2728)  ( 0.00     0.4938)
 B2 :1...2           ( 2.00    -0.4900)  ( 0.00     0.0846)

 SCF CONVERGED

 CYCLE    8
 *** Using FIT density in Focky
  SDIIS (wt  1.000): -0.0000 -0.0000 -0.0000 -0.0001  0.0018  0.0287  0.9696
  DIIS coefficients: -0.0000 -0.0000 -0.0000 -0.0001  0.0018  0.0287  0.9696
 SCF Error: norm([F,P])=      0.000000089558, max([F,P])=      0.000000038006
 orbitals (Q,E):
 ---------------
 A1 :1...10          ( 2.00    -0.9348)  ( 2.00    -0.3522)  ( 0.00    -0.0065)  ( 0.00     0.3721)
                     ( 0.00     0.4199)  ( 0.00     0.8472)  ( 0.00     1.1344)  ( 0.00     1.4769)
                     ( 0.00     1.8671)  ( 0.00     2.9400)
 A2 :1...2           ( 0.00     0.5409)  ( 0.00     1.6100)
 B1 :1...4           ( 2.00    -0.2728)  ( 0.00     0.4938)  ( 0.00     1.0040)  ( 0.00     1.7270)
 B2 :1...7           ( 2.00    -0.4900)  ( 0.00     0.0846)  ( 0.00     0.3758)  ( 0.00     0.8509)
                     ( 0.00     1.2844)  ( 0.00     1.4459)  ( 0.00     3.2218)


 Fit test: (difference of exact and fit density, squared integrated, result summed over spins)
         SCF:                                          0.00010182219647

 Gross Charges per Atom (Z minus electrons)
 ==========================================
             0.2817    0.2817   -0.5634
 Net Total:  0.00000000



 =================================================================
 M U L T I P O L E   D E R I V E D   C H A R G E   A N A L Y S I S
 =================================================================

 See: M. Swart, P.Th. van Duijnen, J.G. Snijders, J.Comput.Chem., (2001), p. 79-88.

 --------------------------------------- 
 Multipole derived atomic charges (a.u.)
 --------------------------------------- 

        Atom    Level:     MDC-m        MDC-d        MDC-q
 ---------------------------------------------------------
     1     H            0.090004     0.312337     0.350045
     2     H            0.090004     0.312337     0.350045
     3     O           -0.180009    -0.624674    -0.700090
 gdimqm lrsp F
 gdimqm exclclfld F


 ======  dij

  column           1                   2                   3
  row   
    1    0.00000000000000E+00  0.00000000000000E+00  0.00000000000000E+00
    2    0.00000000000000E+00  0.00000000000000E+00  0.00000000000000E+00
    3    0.00000000000000E+00  0.00000000000000E+00  0.00000000000000E+00
    4    1.12892505609200E+00  5.77784910804044E-01  0.00000000000000E+00
    5    7.80975409374287E-01  2.67988813200395E-01  0.00000000000000E+00
    6    0.00000000000000E+00  0.00000000000000E+00  0.00000000000000E+00
    7    0.00000000000000E+00  5.06248101939961E-01  0.00000000000000E+00
    8    0.00000000000000E+00  0.00000000000000E+00  4.85653807863620E-03
    9    0.00000000000000E+00  1.12892505609200E+00  0.00000000000000E+00
   10    0.00000000000000E+00  7.80975409374287E-01  0.00000000000000E+00
   11    0.00000000000000E+00  0.00000000000000E+00  0.00000000000000E+00
   12    0.00000000000000E+00  0.00000000000000E+00  0.00000000000000E+00
   13    0.00000000000000E+00  0.00000000000000E+00  4.85653807863620E-03
   14    0.00000000000000E+00 -5.06248101939962E-01  0.00000000000000E+00
   15    0.00000000000000E+00  0.00000000000000E+00  0.00000000000000E+00
   16    0.00000000000000E+00  0.00000000000000E+00  0.00000000000000E+00
   17    0.00000000000000E+00  0.00000000000000E+00  0.00000000000000E+00
   18    5.77784910804044E-01  0.00000000000000E+00  0.00000000000000E+00
   19    0.00000000000000E+00  0.00000000000000E+00  5.89408002522540E-01
   20    0.00000000000000E+00  0.00000000000000E+00  0.00000000000000E+00
   21    0.00000000000000E+00  0.00000000000000E+00  0.00000000000000E+00
   22    0.00000000000000E+00  0.00000000000000E+00  0.00000000000000E+00
   23    0.00000000000000E+00  0.00000000000000E+00  0.00000000000000E+00
   24    2.67988813200395E-01  0.00000000000000E+00  5.89408002522540E-01
   25    0.00000000000000E+00  0.00000000000000E+00  0.00000000000000E+00
 *** Using NEW gradient routines ***

 efield gradient after fd_potentials
                    H          0.000000       0.000000       0.000000
                    H          0.000000       0.000000       0.000000
                    O          0.000000       0.000000       0.000000

 efield gradient after TI in calc_gradient
                    H          0.000000       0.000000       0.000000
                    H          0.000000       0.000000       0.000000
                    O          0.000000       0.000000       0.000000


 Geometry CYCLE 5
 ==============

 Energy gradients wrt nuclear displacements
 ==========================================

     Atom      Cartesian (a.u./angstrom)
                 X         Y         Z
 ----------------------------------------
     1 H     0.000000  0.012608 -0.008049
     2 H    -0.000000 -0.012608 -0.008049
     3 O    -0.000000 -0.000000  0.016098
 ----------------------------------------

 dE(predicted):    -0.10740E-03, dE(actual):     0.00000E+00, Trust radius:    0.221909, all in a.u.

----------------------------------------------------------------------
Geometry Convergence after Step   5       (Hartree/Angstrom,Angstrom)
----------------------------------------------------------------------
current energy                               -0.51274132 Hartree
energy change                      -0.00357672     0.00100000    F
constrained gradient max            0.01609832     0.00100000    F
constrained gradient rms            0.00886107     0.00066667    F
gradient max                        0.01609832
gradient rms                        0.00886107
cart. step max                      0.00685234     0.01000000    T
cart. step rms                      0.00330728     0.00666667    T



 Coordinates (Cartesian)
 =======================

     Atom                    bohr                                 angstrom                 Geometric Variables
                   X           Y           Z              X           Y           Z       (0:frozen, *:LT par.)
 --------------------------------------------------------------------------------------------------------------
     1 H      -0.000000   -1.456866    1.154895      -0.000000   -0.770940    0.611144      1       2       3
     2 H       0.000000    1.456866    1.154895       0.000000    0.770940    0.611144      4       5       6
     3 O       0.000000    0.000000    0.012608       0.000000    0.000000    0.006672      7       8       9
 --------------------------------------------------------------------------------------------------------------

 Number of elements of the density matrix on this node (used, total):       120       325



 ===========================================
 Numerical Integration : Fuzzy Cells (Becke)
 ===========================================
  
 Becke grid quality: NORMAL         
  
 Lebedev angular grid order:             min:  11 max:  23
 Nr. of radial points:                   min:  46 max:  49

 Total nr. of points:       5158
 Nr. of blocks:               41
 Block length:               126
 Nr. of dummy points:          8
 calculated EF potential in CalcConstantPotentials.f90
 calculated EF potential in CalcConstantPotentials.f90
 calculated EF potential in CalcConstantPotentials.f90
 calculated EF potential in CalcConstantPotentials.f90
 calculated EF potential in CalcConstantPotentials.f90


 Test of Precision of the Numerical Integration Grid
 ===================================================

 Integral of the Total Core Density:                   1.99999670865225
 Relative Error:                                      -1.646E-06



 ========================
 Density Fitting (zlmFit)
 ========================
  
 ZlmFit Fit Quality: NORMAL         
  
 Max L-expansion:                        min:   5 max:   6
 Nr. of radial interpolation points:     min:  36 max:  42



 =====
 S C F  ***  ScaSCF  ***
 =====
  
 Initial density matrix is taken from previous geometry

 CYCLE    1
 SCF Error: norm([F,P])=      0.008332495219, max([F,P])=      0.002689040026
 orbitals (Q,E):
 ---------------
 A1 :1...10          ( 2.00    -0.9341)  ( 2.00    -0.3530)  ( 0.00    -0.0097)  ( 0.00     0.3672)
                     ( 0.00     0.4180)  ( 0.00     0.8423)  ( 0.00     1.1268)  ( 0.00     1.4708)
                     ( 0.00     1.8585)  ( 0.00     2.9351)
 A2 :1...2           ( 0.00     0.5364)  ( 0.00     1.6040)
 B1 :1...4           ( 2.00    -0.2742)  ( 0.00     0.4902)  ( 0.00     1.0030)  ( 0.00     1.7177)
 B2 :1...7           ( 2.00    -0.4900)  ( 0.00     0.0809)  ( 0.00     0.3740)  ( 0.00     0.8433)
                     ( 0.00     1.2832)  ( 0.00     1.4336)  ( 0.00     3.2093)

 CYCLE    2
  SDIIS (wt  0.000):  0.0914  0.9086
 A-DIIS (wt  1.000):  0.0000  1.0000
  DIIS coefficients:  0.0000  1.0000
 SCF Error: norm([F,P])=      0.002702817988, max([F,P])=      0.001318390821
 orbitals (Q,E):
 ---------------
 A1 :1...3           ( 2.00    -0.9314)  ( 2.00    -0.3511)  ( 0.00    -0.0079)
 A2 :1...1           ( 0.00     0.5386)
 B1 :1...2           ( 2.00    -0.2718)  ( 0.00     0.4923)
 B2 :1...2           ( 2.00    -0.4876)  ( 0.00     0.0826)

 CYCLE    3
  SDIIS (wt  0.000):  0.0052  0.3329  0.6619
 A-DIIS (wt  1.000):  0.0000  0.0000  1.0000
  DIIS coefficients:  0.0000  0.0000  1.0000
 SCF Error: norm([F,P])=      0.001377146953, max([F,P])=      0.000683567448
 orbitals (Q,E):
 ---------------
 A1 :1...3           ( 2.00    -0.9319)  ( 2.00    -0.3511)  ( 0.00    -0.0081)
 A2 :1...1           ( 0.00     0.5383)
 B1 :1...2           ( 2.00    -0.2721)  ( 0.00     0.4920)
 B2 :1...2           ( 2.00    -0.4880)  ( 0.00     0.0824)

 CYCLE    4
  SDIIS (wt  1.000):  0.0143  0.3602  0.6255
  DIIS coefficients:  0.0143  0.3602  0.6255
 SCF Error: norm([F,P])=      0.000733670349, max([F,P])=      0.000365378612
 orbitals (Q,E):
 ---------------
 A1 :1...3           ( 2.00    -0.9317)  ( 2.00    -0.3512)  ( 0.00    -0.0081)
 A2 :1...1           ( 0.00     0.5383)
 B1 :1...2           ( 2.00    -0.2720)  ( 0.00     0.4921)
 B2 :1...2           ( 2.00    -0.4879)  ( 0.00     0.0824)

 CYCLE    5
  SDIIS (wt  1.000):  0.0105  0.1859  0.3121  0.4916
  DIIS coefficients:  0.0105  0.1859  0.3121  0.4916
 SCF Error: norm([F,P])=      0.000016697207, max([F,P])=      0.000006353957
 orbitals (Q,E):
 ---------------
 A1 :1...3           ( 2.00    -0.9317)  ( 2.00    -0.3512)  ( 0.00    -0.0081)
 A2 :1...1           ( 0.00     0.5383)
 B1 :1...2           ( 2.00    -0.2720)  ( 0.00     0.4921)
 B2 :1...2           ( 2.00    -0.4879)  ( 0.00     0.0824)

 CYCLE    6
  SDIIS (wt  1.000):  0.0006  0.0232  0.0420  0.3161  0.6180
  DIIS coefficients:  0.0006  0.0232  0.0420  0.3161  0.6180
 SCF Error: norm([F,P])=      0.000007973813, max([F,P])=      0.000003538331
 orbitals (Q,E):
 ---------------
 A1 :1...3           ( 2.00    -0.9317)  ( 2.00    -0.3512)  ( 0.00    -0.0081)
 A2 :1...1           ( 0.00     0.5383)
 B1 :1...2           ( 2.00    -0.2720)  ( 0.00     0.4921)
 B2 :1...2           ( 2.00    -0.4879)  ( 0.00     0.0824)

 CYCLE    7
  SDIIS (wt  1.000): -0.0000 -0.0004 -0.0006  0.0202  0.0430  0.9378
  DIIS coefficients: -0.0000 -0.0004 -0.0006  0.0202  0.0430  0.9378
 SCF Error: norm([F,P])=      0.000000091495, max([F,P])=      0.000000034546
 orbitals (Q,E):
 ---------------
 A1 :1...3           ( 2.00    -0.9317)  ( 2.00    -0.3512)  ( 0.00    -0.0081)
 A2 :1...1           ( 0.00     0.5383)
 B1 :1...2           ( 2.00    -0.2720)  ( 0.00     0.4921)
 B2 :1...2           ( 2.00    -0.4879)  ( 0.00     0.0824)

 SCF CONVERGED

 CYCLE    8
 *** Using FIT density in Focky
[...]
     1  EXIT PROCEDURE .........      0.02    0.64             0.00    0.00             0.02    0.61


 Currently Open Files (EXIT00)
 ====================

 Unit    Access Format  Status   Type       Ident (file)
 -------------------------------------------------------
   3      SEQ    FORM   TRANSP  NORMAL      LOGFILE
                                          ( logfile )

 ***************************************************************************************************
 (LOGFILE)
 <Feb06-2021> <22:13:23>  ADF branches/JeffBecca/2019-01-23  RunTime: Feb06-2021 22:13:23  Nodes: 1  Procs: 1
 <Feb06-2021> <22:13:24>  Hydrogen (DZP)
 <Feb06-2021> <22:13:24>  RunType   : CREATE
 <Feb06-2021> <22:13:24>  Net Charge: 0 (Nuclei minus Electrons)
 <Feb06-2021> <22:13:24>  Symmetry  : ATOM
  Coordinates
    Atom         X           Y           Z   (Angstrom)
    1.H         0.000000    0.000000    0.000000
 <Feb06-2021> <22:13:25>  >>>> CORORT
 <Feb06-2021> <22:13:25>  >>>> CLSMAT
 <Feb06-2021> <22:13:25>  >>>> ORTHON
 <Feb06-2021> <22:13:25>  >>>> GENPT
 <Feb06-2021> <22:13:25>  Block Length=  64
 <Feb06-2021> <22:13:25>  >>>> PTBAS
 <Feb06-2021> <22:13:25>  >>>> CYCLE
 <Feb06-2021> <22:13:25>              |Error|         MaxErr       Wt(A-DIIS)
 <Feb06-2021> <22:13:25>      1      0.00000000      0.00000000
 <Feb06-2021> <22:13:25>      2      0.03262951      0.03262951
 <Feb06-2021> <22:13:25>      3      0.00529750      0.00529750    100.0
 <Feb06-2021> <22:13:25>      4      0.00083749      0.00083749      0.0
 <Feb06-2021> <22:13:25>      5      0.00000052      0.00000052      0.0
 <Feb06-2021> <22:13:25>      6      0.00000000      0.00000000      0.0
 <Feb06-2021> <22:13:25>  SCF converged
 <Feb06-2021> <22:13:25>      7      0.00000000      0.00000000      0.0
 <Feb06-2021> <22:13:25>  >>>> POPAN
 <Feb06-2021> <22:13:25>  >>>> DEBYE
 <Feb06-2021> <22:13:25>  NORMAL TERMINATION
 <Feb06-2021> <22:13:25>  END
 <Feb06-2021> <22:13:26>  ADF branches/JeffBecca/2019-01-23  RunTime: Feb06-2021 22:13:26  Nodes: 1  Procs: 1
 <Feb06-2021> <22:13:26>  Oxygen (DZP, 1s frozen)
 <Feb06-2021> <22:13:26>  RunType   : CREATE
 <Feb06-2021> <22:13:26>  Net Charge: 0 (Nuclei minus Electrons)
 <Feb06-2021> <22:13:26>  Symmetry  : ATOM
  Coordinates
    Atom         X           Y           Z   (Angstrom)
    1.O         0.000000    0.000000    0.000000
 <Feb06-2021> <22:13:26>  >>>> CORORT
 <Feb06-2021> <22:13:26>  >>>> CLSMAT
 <Feb06-2021> <22:13:26>  >>>> ORTHON
 <Feb06-2021> <22:13:26>  >>>> GENPT
 <Feb06-2021> <22:13:26>  Block Length=  68
 <Feb06-2021> <22:13:26>  >>>> PTBAS
 <Feb06-2021> <22:13:26>  >>>> CYCLE
 <Feb06-2021> <22:13:26>              |Error|         MaxErr       Wt(A-DIIS)
 <Feb06-2021> <22:13:26>      1      0.00000000      0.00000000
 <Feb06-2021> <22:13:26>      2      2.48152593      1.80925657
 <Feb06-2021> <22:13:26>      3      2.34193535      1.58482590    100.0
 <Feb06-2021> <22:13:26>      4      0.45956989      0.27672173    100.0
 <Feb06-2021> <22:13:26>      5      0.49173124      0.29933879    100.0
 <Feb06-2021> <22:13:26>      6      0.01091371      0.00675312      5.8
 <Feb06-2021> <22:13:26>      7      0.00061547      0.00037655      0.0
 <Feb06-2021> <22:13:26>      8      0.00000211      0.00000128      0.0
 <Feb06-2021> <22:13:26>      9      0.00000001      0.00000000      0.0
 <Feb06-2021> <22:13:26>  SCF converged
 <Feb06-2021> <22:13:26>     10      0.00000000      0.00000000      0.0
 <Feb06-2021> <22:13:26>  >>>> POPAN
 <Feb06-2021> <22:13:26>  >>>> DEBYE
 <Feb06-2021> <22:13:26>  NORMAL TERMINATION
 <Feb06-2021> <22:13:26>  END
 <Feb06-2021> <22:13:27>  ADF branches/JeffBecca/2019-01-23  RunTime: Feb06-2021 22:13:27  Nodes: 1  Procs: 10
 <Feb06-2021> <22:13:28>  None
 <Feb06-2021> <22:13:28>  RunType   : GEOMETRY OPTIMIZATION
 <Feb06-2021> <22:13:28>  Net Charge: 0 (Nuclei minus Electrons)
 <Feb06-2021> <22:13:28>  Symmetry  : C(2V)
 <Feb06-2021> <22:13:28>  >>>> FRAGM
  Coordinates in Geometry Cycle 1
    Atom         X           Y           Z   (Angstrom)
    1.H         0.000000   -1.000000    0.614480
    2.H         0.000000    1.000000    0.614480
    3.O         0.000000    0.000000    0.000000
 <Feb06-2021> <22:13:28>  >>>> CORORT
 <Feb06-2021> <22:13:28>  >>>> CLSMAT
 <Feb06-2021> <22:13:28>  >>>> ORTHON
 <Feb06-2021> <22:13:28>  >>>> GENPT
 <Feb06-2021> <22:13:28>  Block Length= 126
 <Feb06-2021> <22:13:28>  >>>> PTBAS
 <Feb06-2021> <22:13:28>  >>>> CYCLE
 <Feb06-2021> <22:13:28>              |Error|         MaxErr       Wt(A-DIIS)
 <Feb06-2021> <22:13:28>      1      0.55136308      0.25277807
 <Feb06-2021> <22:13:28>      2      0.74924128      0.32249439    100.0
 <Feb06-2021> <22:13:28>      3      1.56266908      0.66316733    100.0
 <Feb06-2021> <22:13:28>      4      0.44670555      0.19551864    100.0
 <Feb06-2021> <22:13:28>      5      0.17276245      0.07501424     74.8
 <Feb06-2021> <22:13:28>      6      0.10379146      0.04484662     44.3
 <Feb06-2021> <22:13:28>      7      0.01507744      0.00649255      5.5
 <Feb06-2021> <22:13:28>      8      0.00202473      0.00086743      0.0
 <Feb06-2021> <22:13:28>      9      0.00001664      0.00000705      0.0
 <Feb06-2021> <22:13:28>     10      0.00000025      0.00000009      0.0
 <Feb06-2021> <22:13:28>  SCF converged
 <Feb06-2021> <22:13:28>     11      0.00000001      0.00000001      0.0
 <Feb06-2021> <22:13:28>  >>>> TOTEN
 <Feb06-2021> <22:13:28>  >>>> POPAN
 <Feb06-2021> <22:13:28>  >>>> DEBYE
 <Feb06-2021> <22:13:28>  >>>> ENGRAD
 <Feb06-2021> <22:13:28>  current energy                               -0.46344134 Hartree
 <Feb06-2021> <22:13:28>  energy change                      -0.46344134     0.00100000    F
 <Feb06-2021> <22:13:28>  constrained gradient max            0.17536356     0.00100000    F
 <Feb06-2021> <22:13:28>  constrained gradient rms            0.09715092     0.00066667    F
 <Feb06-2021> <22:13:28>  gradient max                        0.17536356
 <Feb06-2021> <22:13:28>  gradient rms                        0.09715092
 <Feb06-2021> <22:13:28>  cart. step max                      0.14736237     0.01000000    F
 <Feb06-2021> <22:13:28>  cart. step rms                      0.06964782     0.00666667    F
  Coordinates in Geometry Cycle 2
    Atom         X           Y           Z   (Angstrom)
    1.H         0.000000   -0.852638    0.620618
    2.H         0.000000    0.852638    0.620618
    3.O         0.000000    0.000000   -0.012276
 <Feb06-2021> <22:13:28>  >>>> CORORT
 <Feb06-2021> <22:13:28>  >>>> CLSMAT
 <Feb06-2021> <22:13:28>  >>>> ORTHON
 <Feb06-2021> <22:13:28>  >>>> GENPT
 <Feb06-2021> <22:13:28>  Block Length= 126
 <Feb06-2021> <22:13:28>  >>>> PTBAS
 <Feb06-2021> <22:13:28>  >>>> CYCLE
 <Feb06-2021> <22:13:28>              |Error|         MaxErr       Wt(A-DIIS)
 <Feb06-2021> <22:13:28>      1      0.09828729      0.03694821
 <Feb06-2021> <22:13:28>      2      0.04638502      0.01949461    100.0
 <Feb06-2021> <22:13:28>      3      0.03052063      0.01377528    100.0
 <Feb06-2021> <22:13:28>      4      0.02166918      0.00770505      6.8
 <Feb06-2021> <22:13:28>      5      0.00084449      0.00034135      0.0
 <Feb06-2021> <22:13:29>      6      0.00002481      0.00000848      0.0
 <Feb06-2021> <22:13:29>      7      0.00000217      0.00000088      0.0
 <Feb06-2021> <22:13:29>  SCF converged
 <Feb06-2021> <22:13:29>      8      0.00000020      0.00000007      0.0
 <Feb06-2021> <22:13:29>  >>>> TOTEN
 <Feb06-2021> <22:13:29>  >>>> POPAN
 <Feb06-2021> <22:13:29>  >>>> DEBYE
 <Feb06-2021> <22:13:29>  >>>> ENGRAD
 <Feb06-2021> <22:13:29>  current energy                               -0.50283252 Hartree
 <Feb06-2021> <22:13:29>  energy change                      -0.03939118     0.00100000    F
 <Feb06-2021> <22:13:29>  constrained gradient max            0.10335462     0.00100000    F
 <Feb06-2021> <22:13:29>  constrained gradient rms            0.06188025     0.00066667    F
 <Feb06-2021> <22:13:29>  gradient max                        0.10335462
 <Feb06-2021> <22:13:29>  gradient rms                        0.06188025
 <Feb06-2021> <22:13:29>  cart. step max                      0.16033990     0.01000000    F
 <Feb06-2021> <22:13:29>  cart. step rms                      0.07710141     0.00666667    F
  Coordinates in Geometry Cycle 3
    Atom         X           Y           Z   (Angstrom)
    1.H         0.000000   -0.692298    0.601981
    2.H         0.000000    0.692298    0.601981
    3.O         0.000000    0.000000    0.024997
 <Feb06-2021> <22:13:29>  >>>> CORORT
 <Feb06-2021> <22:13:29>  >>>> CLSMAT
 <Feb06-2021> <22:13:29>  >>>> ORTHON
 <Feb06-2021> <22:13:29>  >>>> GENPT
 <Feb06-2021> <22:13:29>  Block Length= 126
 <Feb06-2021> <22:13:29>  >>>> PTBAS
 <Feb06-2021> <22:13:29>  >>>> CYCLE
 <Feb06-2021> <22:13:29>              |Error|         MaxErr       Wt(A-DIIS)
 <Feb06-2021> <22:13:29>      1      0.19404364      0.06272869
 <Feb06-2021> <22:13:29>      2      0.07485456      0.03077480    100.0
 <Feb06-2021> <22:13:29>      3      0.04610060      0.02073339    100.0
 <Feb06-2021> <22:13:29>      4      0.04115500      0.01342770     12.6
 <Feb06-2021> <22:13:29>      5      0.00501076      0.00203793      1.0
 <Feb06-2021> <22:13:29>      6      0.00012045      0.00004175      0.0
 <Feb06-2021> <22:13:29>      7      0.00000573      0.00000209      0.0
 <Feb06-2021> <22:13:29>      8      0.00000011      0.00000004      0.0
 <Feb06-2021> <22:13:29>  SCF converged
 <Feb06-2021> <22:13:29>      9      0.00000001      0.00000000      0.0
 <Feb06-2021> <22:13:29>  >>>> TOTEN
 <Feb06-2021> <22:13:29>  >>>> POPAN
 <Feb06-2021> <22:13:29>  >>>> DEBYE
 <Feb06-2021> <22:13:29>  >>>> ENGRAD
 <Feb06-2021> <22:13:29>  current energy                               -0.49883133 Hartree
 <Feb06-2021> <22:13:29>  energy change                       0.00400119     0.00100000    F
 <Feb06-2021> <22:13:29>  constrained gradient max            0.20124915     0.00100000    F
 <Feb06-2021> <22:13:29>  constrained gradient rms            0.11062881     0.00066667    F
 <Feb06-2021> <22:13:29>  gradient max                        0.20124915
 <Feb06-2021> <22:13:29>  gradient rms                        0.11062881
 <Feb06-2021> <22:13:29>  cart. step max                      0.03228523     0.01000000    F
 <Feb06-2021> <22:13:29>  cart. step rms                      0.01576233     0.00666667    F
  Coordinates in Geometry Cycle 4
    Atom         X           Y           Z   (Angstrom)
    1.H         0.000000   -0.710636    0.618124
    2.H         0.000000    0.710636    0.618124
    3.O         0.000000    0.000000   -0.007288
 <Feb06-2021> <22:13:29>  >>>> CORORT
 <Feb06-2021> <22:13:29>  >>>> CLSMAT
 <Feb06-2021> <22:13:29>  >>>> ORTHON
 <Feb06-2021> <22:13:29>  >>>> GENPT
 <Feb06-2021> <22:13:29>  Block Length= 126
 <Feb06-2021> <22:13:29>  >>>> PTBAS
 <Feb06-2021> <22:13:29>  >>>> CYCLE
 <Feb06-2021> <22:13:29>              |Error|         MaxErr       Wt(A-DIIS)
 <Feb06-2021> <22:13:29>      1      0.06865968      0.02475579
 <Feb06-2021> <22:13:29>      2      0.01792139      0.00834389    100.0
 <Feb06-2021> <22:13:29>      3      0.01457952      0.00483305    100.0
 <Feb06-2021> <22:13:29>      4      0.01156456      0.00478355      3.8
 <Feb06-2021> <22:13:29>      5      0.00035865      0.00013331      0.0
 <Feb06-2021> <22:13:29>      6      0.00001028      0.00000366      0.0
 <Feb06-2021> <22:13:29>      7      0.00000062      0.00000026      0.0
 <Feb06-2021> <22:13:29>  SCF converged
 <Feb06-2021> <22:13:29>      8      0.00000007      0.00000003      0.0
 <Feb06-2021> <22:13:29>  >>>> TOTEN
 <Feb06-2021> <22:13:29>  >>>> POPAN
 <Feb06-2021> <22:13:29>  >>>> DEBYE
 <Feb06-2021> <22:13:29>  >>>> ENGRAD
 <Feb06-2021> <22:13:29>  current energy                               -0.50916460 Hartree
 <Feb06-2021> <22:13:29>  energy change                      -0.01033327     0.00100000    F
 <Feb06-2021> <22:13:29>  constrained gradient max            0.07225276     0.00100000    F
 <Feb06-2021> <22:13:29>  constrained gradient rms            0.04215379     0.00066667    F
 <Feb06-2021> <22:13:29>  gradient max                        0.07225276
 <Feb06-2021> <22:13:29>  gradient rms                        0.04215379
 <Feb06-2021> <22:13:29>  cart. step max                      0.05345228     0.01000000    F
 <Feb06-2021> <22:13:29>  cart. step rms                      0.02599988     0.00666667    F
  Coordinates in Geometry Cycle 5
    Atom         X           Y           Z   (Angstrom)
    1.H         0.000000   -0.764088    0.610275
    2.H         0.000000    0.764088    0.610275
    3.O         0.000000    0.000000    0.008410
 <Feb06-2021> <22:13:29>  >>>> CORORT
 <Feb06-2021> <22:13:29>  >>>> CLSMAT
 <Feb06-2021> <22:13:29>  >>>> ORTHON
 <Feb06-2021> <22:13:29>  >>>> GENPT
 <Feb06-2021> <22:13:29>  Block Length= 126
 <Feb06-2021> <22:13:29>  >>>> PTBAS
 <Feb06-2021> <22:13:29>  >>>> CYCLE
 <Feb06-2021> <22:13:29>              |Error|         MaxErr       Wt(A-DIIS)
 <Feb06-2021> <22:13:29>      1      0.04580645      0.02299379
 <Feb06-2021> <22:13:29>      2      0.01511076      0.00433892    100.0
 <Feb06-2021> <22:13:29>      3      0.02116092      0.00895708    100.0
 <Feb06-2021> <22:13:29>      4      0.00384655      0.00127311      0.3
 <Feb06-2021> <22:13:29>      5      0.00054564      0.00018203      0.0
 <Feb06-2021> <22:13:30>      6      0.00001003      0.00000473      0.0
 <Feb06-2021> <22:13:30>      7      0.00000183      0.00000061      0.0
 <Feb06-2021> <22:13:30>  SCF converged
 <Feb06-2021> <22:13:30>      8      0.00000009      0.00000004      0.0
 <Feb06-2021> <22:13:30>  >>>> TOTEN
 <Feb06-2021> <22:13:30>  >>>> POPAN
 <Feb06-2021> <22:13:30>  >>>> DEBYE
 <Feb06-2021> <22:13:30>  >>>> ENGRAD
 <Feb06-2021> <22:13:30>  current energy                               -0.51274132 Hartree
 <Feb06-2021> <22:13:30>  energy change                      -0.00357672     0.00100000    F
 <Feb06-2021> <22:13:30>  constrained gradient max            0.01609832     0.00100000    F
 <Feb06-2021> <22:13:30>  constrained gradient rms            0.00886107     0.00066667    F
 <Feb06-2021> <22:13:30>  gradient max                        0.01609832
 <Feb06-2021> <22:13:30>  gradient rms                        0.00886107
 <Feb06-2021> <22:13:30>  cart. step max                      0.00685234     0.01000000    T
 <Feb06-2021> <22:13:30>  cart. step rms                      0.00330728     0.00666667    T
  Coordinates in Geometry Cycle 6
    Atom         X           Y           Z   (Angstrom)
    1.H         0.000000   -0.770940    0.611144
    2.H         0.000000    0.770940    0.611144
    3.O         0.000000    0.000000    0.006672
 <Feb06-2021> <22:13:30>  >>>> CORORT
 <Feb06-2021> <22:13:30>  >>>> CLSMAT
 <Feb06-2021> <22:13:30>  >>>> ORTHON
 <Feb06-2021> <22:13:30>  >>>> GENPT
 <Feb06-2021> <22:13:30>  Block Length= 126
 <Feb06-2021> <22:13:30>  >>>> PTBAS
 <Feb06-2021> <22:13:30>  >>>> CYCLE
 <Feb06-2021> <22:13:30>              |Error|         MaxErr       Wt(A-DIIS)
 <Feb06-2021> <22:13:30>      1      0.00833250      0.00268904
 <Feb06-2021> <22:13:30>      2      0.00270282      0.00131839    100.0
 <Feb06-2021> <22:13:30>      3      0.00137715      0.00068357    100.0
 <Feb06-2021> <22:13:30>      4      0.00073367      0.00036538      0.0
 <Feb06-2021> <22:13:30>      5      0.00001670      0.00000635      0.0
 <Feb06-2021> <22:13:30>      6      0.00000797      0.00000354      0.0
 <Feb06-2021> <22:13:30>      7      0.00000009      0.00000003      0.0
 <Feb06-2021> <22:13:30>  SCF converged
 <Feb06-2021> <22:13:30>      8      0.00000000      0.00000000      0.0
 <Feb06-2021> <22:13:30>  >>>> TOTEN
 <Feb06-2021> <22:13:30>  >>>> POPAN
 <Feb06-2021> <22:13:30>  >>>> DEBYE
 <Feb06-2021> <22:13:30>  >>>> ENGRAD
 <Feb06-2021> <22:13:30>  current energy                               -0.51286232 Hartree
 <Feb06-2021> <22:13:30>  energy change                      -0.00012100     0.00100000    T
 <Feb06-2021> <22:13:30>  constrained gradient max            0.00297155     0.00100000    F
 <Feb06-2021> <22:13:30>  constrained gradient rms            0.00144214     0.00066667    F
 <Feb06-2021> <22:13:30>  gradient max                        0.00297155
 <Feb06-2021> <22:13:30>  gradient rms                        0.00144214
 <Feb06-2021> <22:13:30>  cart. step max                      0.00092790     0.01000000    T
 <Feb06-2021> <22:13:30>  cart. step rms                      0.00046046     0.00666667    T
  Coordinates in Geometry Cycle 7
    Atom         X           Y           Z   (Angstrom)
    1.H         0.000000   -0.771496    0.611608
    2.H         0.000000    0.771496    0.611608
    3.O         0.000000    0.000000    0.005744
 <Feb06-2021> <22:13:30>  >>>> CORORT
 <Feb06-2021> <22:13:30>  >>>> CLSMAT
 <Feb06-2021> <22:13:30>  >>>> ORTHON
 <Feb06-2021> <22:13:30>  >>>> GENPT
 <Feb06-2021> <22:13:30>  Block Length= 126
 <Feb06-2021> <22:13:30>  >>>> PTBAS
 <Feb06-2021> <22:13:30>  >>>> CYCLE
 <Feb06-2021> <22:13:30>              |Error|         MaxErr       Wt(A-DIIS)
 <Feb06-2021> <22:13:30>      1      0.00175080      0.00064543
 <Feb06-2021> <22:13:30>      2      0.00062341      0.00028078    100.0
 <Feb06-2021> <22:13:30>      3      0.00065782      0.00023018    100.0
 <Feb06-2021> <22:13:30>      4      0.00032103      0.00013789      0.0
 <Feb06-2021> <22:13:30>      5      0.00001677      0.00000640      0.0
 <Feb06-2021> <22:13:30>      6      0.00000019      0.00000006      0.0
 <Feb06-2021> <22:13:30>  SCF converged
 <Feb06-2021> <22:13:30>      7      0.00000002      0.00000001      0.0
 <Feb06-2021> <22:13:30>  >>>> TOTEN
 <Feb06-2021> <22:13:30>  >>>> POPAN
 <Feb06-2021> <22:13:30>  >>>> DEBYE
 <Feb06-2021> <22:13:30>  >>>> ENGRAD
 <Feb06-2021> <22:13:30>  current energy                               -0.51286602 Hartree
 <Feb06-2021> <22:13:30>  energy change                      -0.00000369     0.00100000    T
 <Feb06-2021> <22:13:30>  constrained gradient max            0.00021784     0.00100000    T
 <Feb06-2021> <22:13:30>  constrained gradient rms            0.00008977     0.00066667    T
 <Feb06-2021> <22:13:30>  gradient max                        0.00021784
 <Feb06-2021> <22:13:30>  gradient rms                        0.00008977
 <Feb06-2021> <22:13:30>  cart. step max                      0.00014024     0.01000000    T
 <Feb06-2021> <22:13:30>  cart. step rms                      0.00006757     0.00666667    T
 <Feb06-2021> <22:13:30>  GEOMETRY CONVERGED
 <Feb06-2021> <22:13:30>  Calculating Energy Terms for Final Geometry
  Coordinates in Geometry Cycle 7
    Atom         X           Y           Z   (Angstrom)
    1.H         0.000000   -0.771496    0.611608
    2.H         0.000000    0.771496    0.611608
    3.O         0.000000    0.000000    0.005744
 <Feb06-2021> <22:13:30>  >>>> CORORT
 <Feb06-2021> <22:13:30>  >>>> CLSMAT
 <Feb06-2021> <22:13:30>  >>>> ORTHON
 <Feb06-2021> <22:13:30>  >>>> GENPT
 <Feb06-2021> <22:13:30>  Block Length= 126
 <Feb06-2021> <22:13:30>  >>>> PTBAS
 <Feb06-2021> <22:13:30>  >>>> CYCLE
 <Feb06-2021> <22:13:30>              |Error|         MaxErr       Wt(A-DIIS)
 <Feb06-2021> <22:13:30>      1      0.00000000      0.00000000
 <Feb06-2021> <22:13:30>      2      0.00000001      0.00000000    100.0
 <Feb06-2021> <22:13:30>  SCF converged
 <Feb06-2021> <22:13:30>      3      0.00000000      0.00000000    100.0
 <Feb06-2021> <22:13:30>  >>>> TOTEN
 <Feb06-2021> <22:13:30>  >>>> POPAN
 <Feb06-2021> <22:13:30>  >>>> DEBYE
 <Feb06-2021> <22:13:30>  >>>> AMETS
 <Feb06-2021> <22:13:30>  >>>> POPUL
 <Feb06-2021> <22:13:30>   Bond Energy          -0.51286602 a.u.
 <Feb06-2021> <22:13:30>   Bond Energy         -13.95579437 eV
 <Feb06-2021> <22:13:30>   Bond Energy        -321.83       kcal/mol
 <Feb06-2021> <22:13:30>  NORMAL TERMINATION
 <Feb06-2021> <22:13:30>  END
