 argument  1 = nh3Geom.nw



============================== echo of input deck ==============================
echo
start nh3
title "nh3 in def2-svp basis"

geometry units angstrom
N   0.0     0.0     0.0
H   -0.5    -0.5    -0.5
H   0.5     -0.5    -0.5
H   0.0     0.0     0.5
end

basis spherical
 * library "def2-svp"
end

dft
 xc b3lyp
end

task dft optimize
================================================================================


                                         
                                         


              Northwest Computational Chemistry Package (NWChem) 6.8
              ------------------------------------------------------


                    Environmental Molecular Sciences Laboratory
                       Pacific Northwest National Laboratory
                                Richland, WA 99352

                              Copyright (c) 1994-2018
                       Pacific Northwest National Laboratory
                            Battelle Memorial Institute

             NWChem is an open-source computational chemistry package
                        distributed under the terms of the
                      Educational Community License (ECL) 2.0
             A copy of the license is included with this distribution
                              in the LICENSE.TXT file

                                  ACKNOWLEDGMENT
                                  --------------

            This software and its documentation were developed at the
            EMSL at Pacific Northwest National Laboratory, a multiprogram
            national laboratory, operated for the U.S. Department of Energy
            by Battelle under Contract Number DE-AC05-76RL01830. Support
            for this work was provided by the Department of Energy Office
            of Biological and Environmental Research, Office of Basic
            Energy Sciences, and the Office of Advanced Scientific Computing.


           Job information
           ---------------

    hostname        = neon.science.psu.edu
    program         = /amphome/jbb5516/Programs/nwchem/nwchem-myfork/bin/LINUX64/nwchem
    date            = Thu Feb 11 15:27:25 2021

    compiled        = Wed_Jan_08_20:19:03_2020
    source          = /amphome/jbb5516/Programs/nwchem/nwchem-myfork
    nwchem branch   = Development
    nwchem revision = nwchem_on_git-895-ge64326a1b
    ga revision     = 5.7.0
    use scalapack   = F
    input           = nh3Geom.nw
    prefix          = nh3.
    data base       = ./nh3.db
    status          = startup
    nproc           =        1
    time left       =     -1s



           Memory information
           ------------------

    heap     =   13107200 doubles =    100.0 Mbytes
    stack    =   13107197 doubles =    100.0 Mbytes
    global   =   26214400 doubles =    200.0 Mbytes (distinct from heap & stack)
    total    =   52428797 doubles =    400.0 Mbytes
    verify   = yes
    hardfail = no 


           Directory information
           ---------------------

  0 permanent = .
  0 scratch   = .




                                NWChem Input Module
                                -------------------


                               nh3 in def2-svp basis
                               ---------------------

 Scaling coordinates for geometry "geometry" by  1.889725989
 (inverse scale =  0.529177249)

 CS  symmetry detected

          ------
          auto-z
          ------
  Looking for out-of-plane bends
  no constraints, skipping    0.0000000000000000     
  no constraints, skipping    0.0000000000000000     


                             Geometry "geometry" -> ""
                             -------------------------

 Output coordinates in angstroms (scale by  1.889725989 to convert to a.u.)

  No.       Tag          Charge          X              Y              Z
 ---- ---------------- ---------- -------------- -------------- --------------
    1 N                    7.0000     0.05097108    -0.09950854     0.00000000
    2 H                    1.0000    -0.05583830     0.59948485    -0.50000000
    3 H                    1.0000    -0.05583830     0.59948485     0.50000000
    4 H                    1.0000    -0.24512093    -0.50240992     0.00000000

      Atomic Mass 
      ----------- 

      N                 14.003070
      H                  1.007825


 Effective nuclear repulsion energy (a.u.)      17.3563791245

            Nuclear Dipole moment (a.u.) 
            ----------------------------
        X                 Y               Z
 ---------------- ---------------- ----------------
     0.0000000000    -0.0000000000     0.0000000000

      Symmetry information
      --------------------

 Group name             Cs        
 Group number              2
 Group order               2
 No. of unique centers     3

      Symmetry unique atoms

     1    2    4



                                Z-matrix (autoz)
                                -------- 

 Units are Angstrom for bonds and degrees for angles

      Type          Name      I     J     K     L     M      Value
      ----------- --------  ----- ----- ----- ----- ----- ----------
    1 Stretch                  1     2                       0.86603
    2 Stretch                  1     3                       0.86603
    3 Stretch                  1     4                       0.50000
    4 Bend                     2     1     3                70.52878
    5 Bend                     2     1     4               125.26439
    6 Bend                     3     1     4               125.26439


            XYZ format geometry
            -------------------
     4
 geometry
 N                     0.05097108    -0.09950854     0.00000000
 H                    -0.05583830     0.59948485    -0.50000000
 H                    -0.05583830     0.59948485     0.50000000
 H                    -0.24512093    -0.50240992     0.00000000

 ==============================================================================
                                internuclear distances
 ------------------------------------------------------------------------------
       center one      |      center two      | atomic units |  angstroms
 ------------------------------------------------------------------------------
    2 H                |   1 N                |     1.63655  |     0.86603
    3 H                |   1 N                |     1.63655  |     0.86603
    4 H                |   1 N                |     0.94486  |     0.50000
 ------------------------------------------------------------------------------
                         number of included internuclear distances:          3
 ==============================================================================



 ==============================================================================
                                 internuclear angles
 ------------------------------------------------------------------------------
        center 1       |       center 2       |       center 3       |  degrees
 ------------------------------------------------------------------------------
    2 H                |   1 N                |   3 H                |    70.53
    2 H                |   1 N                |   4 H                |   125.26
    3 H                |   1 N                |   4 H                |   125.26
 ------------------------------------------------------------------------------
                            number of included internuclear angles:          3
 ==============================================================================





 Summary of "ao basis" -> "" (spherical)
 ------------------------------------------------------------------------------
       Tag                 Description            Shells   Functions and Types
 ---------------- ------------------------------  ------  ---------------------
 *                          def2-svp                  on all atoms 




                           NWChem Geometry Optimization
                           ----------------------------




                               nh3 in def2-svp basis


  no constraints, skipping    0.0000000000000000     
 maximum gradient threshold         (gmax) =   0.000450
 rms gradient threshold             (grms) =   0.000300
 maximum cartesian step threshold   (xmax) =   0.001800
 rms cartesian step threshold       (xrms) =   0.001200
 fixed trust radius                (trust) =   0.300000
 maximum step size to saddle      (sadstp) =   0.100000
 energy precision                  (eprec) =   5.0D-06
 maximum number of steps          (nptopt) =   20
 initial hessian option           (inhess) =    0
 line search option               (linopt) =    1
 hessian update option            (modupd) =    1
 saddle point option              (modsad) =    0
 initial eigen-mode to follow     (moddir) =    0
 initial variable to follow       (vardir) =    0
 follow first negative mode     (firstneg) =    T
 apply conjugacy                    (opcg) =    F
 source of zmatrix                         =   autoz   


          -------------------
          Energy Minimization
          -------------------


 Names of Z-matrix variables 
    1              2              3              4              5         
    6         

 Variables with the same non-blank name are constrained to be equal


 Using old Hessian from previous optimization

          --------
          Step   0
          --------


                         Geometry "geometry" -> "geometry"
                         ---------------------------------

 Output coordinates in angstroms (scale by  1.889725989 to convert to a.u.)

  No.       Tag          Charge          X              Y              Z
 ---- ---------------- ---------- -------------- -------------- --------------
    1 N                    7.0000     0.05097108    -0.09950854     0.00000000
    2 H                    1.0000    -0.05583830     0.59948485    -0.50000000
    3 H                    1.0000    -0.05583830     0.59948485     0.50000000
    4 H                    1.0000    -0.24512093    -0.50240992     0.00000000

      Atomic Mass 
      ----------- 

      N                 14.003070
      H                  1.007825


 Effective nuclear repulsion energy (a.u.)      17.3563791245

            Nuclear Dipole moment (a.u.) 
            ----------------------------
        X                 Y               Z
 ---------------- ---------------- ----------------
     0.0000000000    -0.0000000000     0.0000000000

      Symmetry information
      --------------------

 Group name             Cs        
 Group number              2
 Group order               2
 No. of unique centers     3

      Symmetry unique atoms

     1    2    4


                                 NWChem DFT Module
                                 -----------------


                               nh3 in def2-svp basis


                      Basis "ao basis" -> "ao basis" (spherical)
                      -----
  N (Nitrogen)
  ------------
            Exponent  Coefficients 
       -------------- ---------------------------------------------------------
  1 S  1.71284159E+03 -0.005393
  1 S  2.57648127E+02 -0.040222
  1 S  5.84582459E+01 -0.179311
  1 S  1.61983679E+01 -0.463763
  1 S  5.00526008E+00 -0.441714

  2 S  5.87318566E-01  1.000000

  3 S  1.87645923E-01  1.000000

  4 P  1.35714702E+01 -0.040072
  4 P  2.92573729E+00 -0.218070
  4 P  7.99277508E-01 -0.512945

  5 P  2.19543480E-01  1.000000

  6 D  1.00000000E+00  1.000000

  H (Hydrogen)
  ------------
            Exponent  Coefficients 
       -------------- ---------------------------------------------------------
  1 S  1.30107010E+01  0.019682
  1 S  1.96225720E+00  0.137965
  1 S  4.44537960E-01  0.478319

  2 S  1.21949620E-01  1.000000

  3 P  8.00000000E-01  1.000000



 Summary of "ao basis" -> "ao basis" (spherical)
 ------------------------------------------------------------------------------
       Tag                 Description            Shells   Functions and Types
 ---------------- ------------------------------  ------  ---------------------
 N                          def2-svp                 6       14   3s2p1d
 H                          def2-svp                 3        5   2s1p




 Summary of "ao basis" -> "ao basis" (spherical)
 ------------------------------------------------------------------------------
       Tag                 Description            Shells   Functions and Types
 ---------------- ------------------------------  ------  ---------------------
 N                          def2-svp                 6       14   3s2p1d
 H                          def2-svp                 3        5   2s1p


      Symmetry analysis of basis
      --------------------------

        a'         19
        a"         10

  Caching 1-el integrals 

            General Information
            -------------------
          SCF calculation type: DFT
          Wavefunction type:  closed shell.
          No. of atoms     :     4
          No. of electrons :    10
           Alpha electrons :     5
            Beta electrons :     5
          Charge           :     0
          Spin multiplicity:     1
          Use of symmetry is: on ; symmetry adaption is: on 
          Maximum number of iterations:  30
          AO basis - number of functions:    29
                     number of shells:    15
          Convergence on energy requested:  1.00D-06
          Convergence on density requested:  1.00D-05
          Convergence on gradient requested:  5.00D-04

              XC Information
              --------------
                         B3LYP Method XC Potential
                     Hartree-Fock (Exact) Exchange  0.200          
                        Slater Exchange Functional  0.800 local    
                    Becke 1988 Exchange Functional  0.720 non-local
              Lee-Yang-Parr Correlation Functional  0.810          
                  VWN I RPA Correlation Functional  0.190 local    

             Grid Information
             ----------------
          Grid used for XC integration:  medium    
          Radial quadrature: Mura-Knowles        
          Angular quadrature: Lebedev. 
          Tag              B.-S. Rad. Rad. Pts. Rad. Cut. Ang. Pts.
          ---              ---------- --------- --------- ---------
          N                   0.65       49           5.0       434
          H                   0.35       45           6.0       434
          Grid pruning is: on 
          Number of quadrature shells:   139
          Spatial weights used:  Erf1

          Convergence Information
          -----------------------
          Convergence aids based upon iterative change in 
          total energy or number of iterations. 
          Levelshifting, if invoked, occurs when the 
          HOMO/LUMO gap drops below (HL_TOL):  1.00D-02
          DIIS, if invoked, will attempt to extrapolate 
          using up to (NFOCK): 10 stored Fock matrices.

                    Damping( 0%)  Levelshifting(0.5)       DIIS
                  --------------- ------------------- ---------------
          dE  on:    start            ASAP                start   
          dE off:    2 iters         30 iters            30 iters 


      Screening Tolerance Information
      -------------------------------
          Density screening/tol_rho:  1.00D-10
          AO Gaussian exp screening on grid/accAOfunc:  14
          CD Gaussian exp screening on grid/accCDfunc:  20
          XC Gaussian exp screening on grid/accXCfunc:  20
          Schwarz screening/accCoul:  1.00D-08


      Superposition of Atomic Density Guess
      -------------------------------------

 Sum of atomic energies:         -55.74201861

      Non-variational initial energy
      ------------------------------

 Total energy =     -56.291978
 1-e energy   =    -105.006793
 2-e energy   =      31.358436
 HOMO         =      -0.531100
 LUMO         =       0.107037


      Symmetry analysis of molecular orbitals - initial
      -------------------------------------------------

  Numbering of irreducible representations: 

     1 a'          2 a"      

  Orbital symmetries:

     1 a'          2 a'          3 a'          4 a"          5 a'      
     6 a'          7 a'          8 a"          9 a"         10 a'      
    11 a'         12 a'         13 a'         14 a"         15 a'      

   Time after variat. SCF:      0.9
   Time prior to 1st pass:      0.9

 Integral file          = ./nh3.aoints.0
 Record size in doubles =    65536    No. of integs per rec  =    43688
 Max. records in memory =        4    Max. records in file   =  2842872
 No. of bits per label  =        8    No. of bits per value  =       64


 #quartets = 4.593D+03 #integrals = 5.530D+04 #direct =  0.0% #cached =100.0%


 Grid_pts file          = ./nh3.gridpts.0
 Record size in doubles =  12289        No. of grid_pts per rec  =   3070
 Max. records in memory =     23        Max. recs in file   =  15160756


           Memory utilization after 1st SCF pass: 
           Heap Space remaining (MW):       12.56            12560608
          Stack Space remaining (MW):       13.11            13106876

   convergence    iter        energy       DeltaE   RMS-Dens  Diis-err    time
 ---------------- ----- ----------------- --------- --------- ---------  ------
 d= 0,ls=0.0,diis     1    -55.4639029501 -7.28D+01  3.53D-02  6.86D-01     4.3
 d= 0,ls=0.0,diis     2    -55.4672837233 -3.38D-03  1.82D-02  6.92D-01     4.4
 d= 0,ls=0.0,diis     3    -55.5360372126 -6.88D-02  1.38D-03  3.23D-03     4.5
 d= 0,ls=0.0,diis     4    -55.5363697918 -3.33D-04  2.58D-04  1.43D-04     4.6
 d= 0,ls=0.0,diis     5    -55.5363835224 -1.37D-05  2.18D-05  1.08D-06     4.7
 d= 0,ls=0.0,diis     6    -55.5363836252 -1.03D-07  2.50D-06  1.10D-08     4.7


         Total DFT energy =      -55.536383625218
      One electron energy =     -107.581785297503
           Coulomb energy =       43.211134450276
    Exchange-Corr. energy =       -8.522111902465
 Nuclear repulsion energy =       17.356379124474

 Numeric. integr. density =       10.000000764429

     Total iterative time =      3.9s



                  Occupations of the irreducible representations
                  ----------------------------------------------

                     irrep           alpha         beta
                     --------     --------     --------
                     a'                4.0          4.0
                     a"                1.0          1.0


                       DFT Final Molecular Orbital Analysis
                       ------------------------------------

 Vector    1  Occ=2.000000D+00  E=-1.427498D+01  Symmetry=a'
              MO Center=  5.1D-02, -1.0D-01,  1.6D-18, r^2= 2.0D-02
   Bfn.  Coefficient  Atom+Function         Bfn.  Coefficient  Atom+Function  
  ----- ------------  ---------------      ----- ------------  ---------------
     1      0.987025  1 N  s                  2     -0.041662  1 N  s          
     3      0.028830  1 N  s          

 Vector    2  Occ=2.000000D+00  E=-9.829072D-01  Symmetry=a'
              MO Center= -1.3D-01, -4.3D-02, -6.8D-17, r^2= 5.5D-01
   Bfn.  Coefficient  Atom+Function         Bfn.  Coefficient  Atom+Function  
  ----- ------------  ---------------      ----- ------------  ---------------
    25      0.466740  4 H  s                  2      0.291177  1 N  s          
     1      0.284707  1 N  s                 15      0.231776  2 H  s          
    20      0.231776  3 H  s                  4      0.129009  1 N  px         
    26      0.124424  4 H  s                  3     -0.102127  1 N  s          
    28      0.066379  4 H  py                 7      0.054770  1 N  px         

 Vector    3  Occ=2.000000D+00  E=-6.935351D-01  Symmetry=a'
              MO Center= -4.3D-02,  2.3D-02, -1.3D-17, r^2= 6.3D-01
   Bfn.  Coefficient  Atom+Function         Bfn.  Coefficient  Atom+Function  
  ----- ------------  ---------------      ----- ------------  ---------------
     5      0.514803  1 N  py                25      0.482340  4 H  s          
    15     -0.241480  2 H  s                 20     -0.241480  3 H  s          
    26      0.182499  4 H  s                  4      0.161507  1 N  px         
     2     -0.139774  1 N  s                  3     -0.109995  1 N  s          
    16     -0.069329  2 H  s                 21     -0.069329  3 H  s          

 Vector    4  Occ=2.000000D+00  E=-4.121219D-01  Symmetry=a"
              MO Center=  2.2D-03,  1.3D-01,  7.6D-17, r^2= 8.1D-01
   Bfn.  Coefficient  Atom+Function         Bfn.  Coefficient  Atom+Function  
  ----- ------------  ---------------      ----- ------------  ---------------
     6      0.529988  1 N  pz                15      0.311897  2 H  s          
    20     -0.311897  3 H  s                  9     -0.229990  1 N  pz         
    16      0.180030  2 H  s                 21     -0.180030  3 H  s          

 Vector    5  Occ=2.000000D+00  E=-2.673548D-01  Symmetry=a'
              MO Center=  2.7D-01, -1.4D-01, -6.8D-18, r^2= 7.0D-01
   Bfn.  Coefficient  Atom+Function         Bfn.  Coefficient  Atom+Function  
  ----- ------------  ---------------      ----- ------------  ---------------
     4      0.569345  1 N  px                 7     -0.428459  1 N  px         
     3     -0.254539  1 N  s                  2     -0.176242  1 N  s          
     5     -0.140001  1 N  py                 8      0.099187  1 N  py         
     1     -0.079800  1 N  s                 15      0.060541  2 H  s          
    20      0.060541  3 H  s                 25      0.059828  4 H  s          

 Vector    6  Occ=0.000000D+00  E= 7.420611D-02  Symmetry=a'
              MO Center= -2.1D-01,  8.5D-01, -2.4D-15, r^2= 3.0D+00
   Bfn.  Coefficient  Atom+Function         Bfn.  Coefficient  Atom+Function  
  ----- ------------  ---------------      ----- ------------  ---------------
     3      1.730432  1 N  s                 16     -0.979830  2 H  s          
    21     -0.979830  3 H  s                 26     -0.533023  4 H  s          
     8      0.355461  1 N  py                 5     -0.176346  1 N  py         
     1      0.102045  1 N  s                  7     -0.090731  1 N  px         
     2      0.067607  1 N  s                 25      0.042794  4 H  s          

 Vector    7  Occ=0.000000D+00  E= 1.595153D-01  Symmetry=a'
              MO Center= -5.4D-01, -8.1D-01,  3.0D-17, r^2= 3.2D+00
   Bfn.  Coefficient  Atom+Function         Bfn.  Coefficient  Atom+Function  
  ----- ------------  ---------------      ----- ------------  ---------------
    26      2.909855  4 H  s                  3     -1.177810  1 N  s          
    16     -0.763366  2 H  s                 21     -0.763366  3 H  s          
     8      0.684932  1 N  py                 5     -0.206889  1 N  py         
     7      0.160055  1 N  px                25     -0.148540  4 H  s          
     2      0.111832  1 N  s                 28     -0.055297  4 H  py         

 Vector    8  Occ=0.000000D+00  E= 1.694138D-01  Symmetry=a"
              MO Center= -9.0D-02,  8.0D-01,  2.5D-15, r^2= 3.2D+00
   Bfn.  Coefficient  Atom+Function         Bfn.  Coefficient  Atom+Function  
  ----- ------------  ---------------      ----- ------------  ---------------
    16      2.154501  2 H  s                 21     -2.154501  3 H  s          
     9      0.773786  1 N  pz                 6     -0.339221  1 N  pz         
    15      0.071320  2 H  s                 20     -0.071320  3 H  s          

 Vector    9  Occ=0.000000D+00  E= 5.406346D-01  Symmetry=a"
              MO Center=  1.5D-02,  1.0D-01,  2.1D-15, r^2= 1.6D+00
   Bfn.  Coefficient  Atom+Function         Bfn.  Coefficient  Atom+Function  
  ----- ------------  ---------------      ----- ------------  ---------------
    15      0.910106  2 H  s                 20     -0.910106  3 H  s          
     9      0.852128  1 N  pz                16     -0.455529  2 H  s          
    21      0.455529  3 H  s                 19     -0.131985  2 H  pz         
    24     -0.131985  3 H  pz                11     -0.129157  1 N  d -1       
    18      0.052029  2 H  py                23     -0.052029  3 H  py         

 Vector   10  Occ=0.000000D+00  E= 6.714938D-01  Symmetry=a'
              MO Center=  1.2D-01, -9.9D-02,  1.7D-17, r^2= 1.7D+00
   Bfn.  Coefficient  Atom+Function         Bfn.  Coefficient  Atom+Function  
  ----- ------------  ---------------      ----- ------------  ---------------
     3      1.819792  1 N  s                 26     -1.483459  4 H  s          
     7     -1.441326  1 N  px                 4     -0.709859  1 N  px         
    25     -0.671764  4 H  s                  8     -0.530900  1 N  py         
    27      0.211647  4 H  px                 5      0.082649  1 N  py         
    16      0.068012  2 H  s                 21      0.068012  3 H  s          

 Vector   11  Occ=0.000000D+00  E= 7.350723D-01  Symmetry=a'
              MO Center= -2.1D-02,  9.3D-02, -1.1D-15, r^2= 1.7D+00
   Bfn.  Coefficient  Atom+Function         Bfn.  Coefficient  Atom+Function  
  ----- ------------  ---------------      ----- ------------  ---------------
     3      2.229397  1 N  s                 26     -1.930915  4 H  s          
     8     -1.077105  1 N  py                25     -0.613841  4 H  s          
    16      0.548046  2 H  s                 21      0.548046  3 H  s          
    15     -0.465833  2 H  s                 20     -0.465833  3 H  s          
     5     -0.438589  1 N  py                 2     -0.434847  1 N  s          

 Vector   12  Occ=0.000000D+00  E= 8.273142D-01  Symmetry=a'
              MO Center=  1.4D-01, -1.4D-01,  1.8D-16, r^2= 1.8D+00
   Bfn.  Coefficient  Atom+Function         Bfn.  Coefficient  Atom+Function  
  ----- ------------  ---------------      ----- ------------  ---------------
     8      2.430274  1 N  py                26      1.442402  4 H  s          
    15     -0.923698  2 H  s                 20     -0.923698  3 H  s          
    16     -0.679310  2 H  s                 21     -0.679310  3 H  s          
     3      0.601575  1 N  s                 25      0.406120  4 H  s          
     5      0.277932  1 N  py                 4     -0.135020  1 N  px         

 Vector   13  Occ=0.000000D+00  E= 8.319493D-01  Symmetry=a'
              MO Center= -1.5D-02,  3.4D-01,  4.7D-15, r^2= 2.1D+00
   Bfn.  Coefficient  Atom+Function         Bfn.  Coefficient  Atom+Function  
  ----- ------------  ---------------      ----- ------------  ---------------
     3      4.004840  1 N  s                  2     -1.753386  1 N  s          
    26     -1.071842  4 H  s                 16     -0.812974  2 H  s          
    21     -0.812974  3 H  s                  8      0.334793  1 N  py         
     5      0.274032  1 N  py                 1     -0.251416  1 N  s          
    25     -0.224768  4 H  s                 28      0.172415  4 H  py         

 Vector   14  Occ=0.000000D+00  E= 8.670080D-01  Symmetry=a"
              MO Center=  4.3D-02,  1.4D-01, -4.4D-15, r^2= 2.1D+00
   Bfn.  Coefficient  Atom+Function         Bfn.  Coefficient  Atom+Function  
  ----- ------------  ---------------      ----- ------------  ---------------
     9      1.674046  1 N  pz                16      1.667205  2 H  s          
    21     -1.667205  3 H  s                  6      0.782763  1 N  pz         
    29     -0.263044  4 H  pz                18     -0.170793  2 H  py         
    23      0.170793  3 H  py                15     -0.135130  2 H  s          
    20      0.135130  3 H  s                 19      0.063589  2 H  pz         

 Vector   15  Occ=0.000000D+00  E= 1.194591D+00  Symmetry=a'
              MO Center= -2.7D-01, -2.6D-01,  1.4D-15, r^2= 1.2D+00
   Bfn.  Coefficient  Atom+Function         Bfn.  Coefficient  Atom+Function  
  ----- ------------  ---------------      ----- ------------  ---------------
     3      2.034678  1 N  s                 26     -1.643193  4 H  s          
     2     -0.713910  1 N  s                  7     -0.478060  1 N  px         
     8     -0.459004  1 N  py                 5     -0.433925  1 N  py         
    17      0.357000  2 H  px                22      0.357000  3 H  px         
    25      0.324911  4 H  s                 27     -0.302677  4 H  px         

 Vector   16  Occ=0.000000D+00  E= 1.302028D+00  Symmetry=a'
              MO Center= -1.3D-02,  4.8D-01,  3.5D-16, r^2= 7.9D-01
   Bfn.  Coefficient  Atom+Function         Bfn.  Coefficient  Atom+Function  
  ----- ------------  ---------------      ----- ------------  ---------------
     3      0.912155  1 N  s                 15     -0.522092  2 H  s          
    20     -0.522092  3 H  s                  8      0.483837  1 N  py         
    19      0.441233  2 H  pz                24     -0.441233  3 H  pz         
    17     -0.291847  2 H  px                22     -0.291847  3 H  px         
     2     -0.188836  1 N  s                 18      0.186072  2 H  py         

 Vector   17  Occ=0.000000D+00  E= 1.448324D+00  Symmetry=a"
              MO Center= -6.5D-02,  2.8D-01, -2.8D-15, r^2= 8.7D-01
   Bfn.  Coefficient  Atom+Function         Bfn.  Coefficient  Atom+Function  
  ----- ------------  ---------------      ----- ------------  ---------------
    17      0.610395  2 H  px                22     -0.610395  3 H  px         
    29      0.545904  4 H  pz                 6      0.251091  1 N  pz         
    13      0.217559  1 N  d  1              11      0.114307  1 N  d -1       
     9     -0.096710  1 N  pz                19      0.063656  2 H  pz         
    24      0.063656  3 H  pz                18     -0.061656  2 H  py         

 Vector   18  Occ=0.000000D+00  E= 1.866183D+00  Symmetry=a"
              MO Center= -1.4D-01,  2.0D-01, -1.2D-15, r^2= 1.1D+00
   Bfn.  Coefficient  Atom+Function         Bfn.  Coefficient  Atom+Function  
  ----- ------------  ---------------      ----- ------------  ---------------
    29      0.950183  4 H  pz                18     -0.688515  2 H  py         
    23      0.688515  3 H  py                17     -0.247880  2 H  px         
    22      0.247880  3 H  px                 9     -0.214013  1 N  pz         
    13     -0.110830  1 N  d  1              11      0.099737  1 N  d -1       
     6      0.074895  1 N  pz                16      0.057211  2 H  s          

 Vector   19  Occ=0.000000D+00  E= 1.910078D+00  Symmetry=a'
              MO Center= -2.0D-01, -1.3D-02, -3.1D-15, r^2= 1.1D+00
   Bfn.  Coefficient  Atom+Function         Bfn.  Coefficient  Atom+Function  
  ----- ------------  ---------------      ----- ------------  ---------------
     3      1.903080  1 N  s                  2     -1.584776  1 N  s          
    27      1.001457  4 H  px                 7     -0.780775  1 N  px         
    26     -0.740583  4 H  s                 17      0.526253  2 H  px         
    22      0.526253  3 H  px                28      0.527236  4 H  py         
     4      0.386858  1 N  px                19      0.357048  2 H  pz         

 Vector   20  Occ=0.000000D+00  E= 2.091969D+00  Symmetry=a'
              MO Center= -1.2D-01, -1.9D-01, -9.1D-17, r^2= 1.1D+00
   Bfn.  Coefficient  Atom+Function         Bfn.  Coefficient  Atom+Function  
  ----- ------------  ---------------      ----- ------------  ---------------
     8      1.364470  1 N  py                28     -1.016064  4 H  py         
     2     -0.797129  1 N  s                 27      0.792619  4 H  px         
    25      0.598442  4 H  s                 18     -0.474674  2 H  py         
    23     -0.474674  3 H  py                 3      0.461376  1 N  s          
    26      0.461288  4 H  s                 15     -0.374268  2 H  s          

 Vector   21  Occ=0.000000D+00  E= 2.311261D+00  Symmetry=a"
              MO Center= -6.6D-02,  2.2D-01, -7.5D-15, r^2= 9.9D-01
   Bfn.  Coefficient  Atom+Function         Bfn.  Coefficient  Atom+Function  
  ----- ------------  ---------------      ----- ------------  ---------------
    29      0.746716  4 H  pz                 6      0.716199  1 N  pz         
     9     -0.529229  1 N  pz                19      0.495906  2 H  pz         
    24      0.495906  3 H  pz                17     -0.483752  2 H  px         
    18      0.482689  2 H  py                22      0.483752  3 H  px         
    23     -0.482689  3 H  py                13      0.375830  1 N  d  1       

 Vector   22  Occ=0.000000D+00  E= 2.539590D+00  Symmetry=a"
              MO Center= -2.6D-02,  3.7D-01, -9.8D-15, r^2= 9.5D-01
   Bfn.  Coefficient  Atom+Function         Bfn.  Coefficient  Atom+Function  
  ----- ------------  ---------------      ----- ------------  ---------------
    19      1.066999  2 H  pz                24      1.066999  3 H  pz         
    11     -0.450518  1 N  d -1              15      0.368141  2 H  s          
    20     -0.368141  3 H  s                 13     -0.347499  1 N  d  1       
     9     -0.341834  1 N  pz                 6     -0.332302  1 N  pz         
    17      0.178524  2 H  px                22     -0.178524  3 H  px         

 Vector   23  Occ=0.000000D+00  E= 2.628005D+00  Symmetry=a'
              MO Center=  3.0D-02, -1.6D-02,  2.1D-14, r^2= 7.3D-01
   Bfn.  Coefficient  Atom+Function         Bfn.  Coefficient  Atom+Function  
  ----- ------------  ---------------      ----- ------------  ---------------
    12      1.039391  1 N  d  0               3     -0.447575  1 N  s          
    27     -0.432107  4 H  px                 7      0.395894  1 N  px         
    10      0.340901  1 N  d -2              17     -0.335542  2 H  px         
    22     -0.335542  3 H  px                19      0.311694  2 H  pz         
    24     -0.311694  3 H  pz                26      0.271980  4 H  s          

 Vector   24  Occ=0.000000D+00  E= 2.938725D+00  Symmetry=a'
              MO Center=  2.6D-02,  6.0D-02, -7.8D-15, r^2= 9.1D-01
   Bfn.  Coefficient  Atom+Function         Bfn.  Coefficient  Atom+Function  
  ----- ------------  ---------------      ----- ------------  ---------------
     2      1.746251  1 N  s                  8      1.092798  1 N  py         
    28     -1.073641  4 H  py                 5     -0.972079  1 N  py         
    15     -0.875578  2 H  s                 20     -0.875578  3 H  s          
    10     -0.752144  1 N  d -2              18      0.676183  2 H  py         
    23      0.676183  3 H  py                 4      0.627105  1 N  px         

 Vector   25  Occ=0.000000D+00  E= 2.961096D+00  Symmetry=a'
              MO Center= -2.7D-02,  7.5D-02,  5.8D-15, r^2= 8.6D-01
   Bfn.  Coefficient  Atom+Function         Bfn.  Coefficient  Atom+Function  
  ----- ------------  ---------------      ----- ------------  ---------------
     3      1.305630  1 N  s                 10      1.079207  1 N  d -2       
    27      1.058854  4 H  px                 5     -0.773206  1 N  py         
    25     -0.759364  4 H  s                  2      0.523088  1 N  s          
    18      0.495131  2 H  py                23      0.495131  3 H  py         
    26     -0.466790  4 H  s                  4      0.461806  1 N  px         

 Vector   26  Occ=0.000000D+00  E= 3.156100D+00  Symmetry=a"
              MO Center=  2.9D-02, -2.2D-02, -4.3D-15, r^2= 8.9D-01
   Bfn.  Coefficient  Atom+Function         Bfn.  Coefficient  Atom+Function  
  ----- ------------  ---------------      ----- ------------  ---------------
    29      1.424165  4 H  pz                 6      1.215931  1 N  pz         
    13     -1.172343  1 N  d  1               9     -0.836432  1 N  pz         
    15     -0.704801  2 H  s                 20      0.704801  3 H  s          
    18      0.558945  2 H  py                23     -0.558945  3 H  py         
    16     -0.511434  2 H  s                 21      0.511434  3 H  s          

 Vector   27  Occ=0.000000D+00  E= 3.517539D+00  Symmetry=a'
              MO Center=  7.1D-02,  2.4D-03, -7.3D-15, r^2= 8.3D-01
   Bfn.  Coefficient  Atom+Function         Bfn.  Coefficient  Atom+Function  
  ----- ------------  ---------------      ----- ------------  ---------------
    14      1.703667  1 N  d  2              15      1.369502  2 H  s          
    20      1.369502  3 H  s                  2     -1.266734  1 N  s          
     3     -1.205147  1 N  s                 27      0.892868  4 H  px         
     8     -0.827996  1 N  py                28     -0.824452  4 H  py         
     5      0.679927  1 N  py                18     -0.636744  2 H  py         

 Vector   28  Occ=0.000000D+00  E= 3.974013D+00  Symmetry=a"
              MO Center=  9.2D-03,  3.2D-02,  1.4D-14, r^2= 8.4D-01
   Bfn.  Coefficient  Atom+Function         Bfn.  Coefficient  Atom+Function  
  ----- ------------  ---------------      ----- ------------  ---------------
    11      1.948913  1 N  d -1              15      1.896922  2 H  s          
    20     -1.896922  3 H  s                 29      1.169364  4 H  pz         
    19      0.945725  2 H  pz                24      0.945725  3 H  pz         
    18     -0.869338  2 H  py                23      0.869338  3 H  py         
     6     -0.452780  1 N  pz                13     -0.390174  1 N  d  1       

 Vector   29  Occ=0.000000D+00  E= 6.359828D+00  Symmetry=a'
              MO Center= -8.4D-02, -2.5D-01,  7.1D-16, r^2= 6.7D-01
   Bfn.  Coefficient  Atom+Function         Bfn.  Coefficient  Atom+Function  
  ----- ------------  ---------------      ----- ------------  ---------------
    25     -8.624052  4 H  s                  2      7.927883  1 N  s          
    28     -2.089084  4 H  py                 5      1.915064  1 N  py         
     3      1.880513  1 N  s                 27     -1.809295  4 H  px         
     4      1.740124  1 N  px                 8     -1.027334  1 N  py         
     7     -0.917698  1 N  px                15     -0.691578  2 H  s          


 center of mass
 --------------
 x =   0.03930740 y =  -0.07673808 z =   0.00000000

 moments of inertia (a.u.)
 ------------------
           5.689678826836          -0.000000000000           0.000000000000
          -0.000000000000           2.141801040913           0.000000000000
           0.000000000000           0.000000000000           4.232471977594

     Multipole analysis of the density
     ---------------------------------

     L   x y z        total         alpha         beta         nuclear
     -   - - -        -----         -----         ----         -------
     0   0 0 0     -0.000000     -5.000000     -5.000000     10.000000

     1   1 0 0     -0.540756     -0.270378     -0.270378      0.000000
     1   0 1 0      0.479089      0.239545      0.239545     -0.000000
     1   0 0 1     -0.000000     -0.000000     -0.000000      0.000000

     2   2 0 0     -5.653022     -2.977400     -2.977400      0.301778
     2   1 1 0      0.383825      0.154955      0.154955      0.073915
     2   1 0 1      0.000000      0.000000      0.000000      0.000000
     2   0 2 0     -3.959382     -3.837526     -3.837526      3.715669
     2   0 1 1      0.000000      0.000000      0.000000      0.000000
     2   0 0 2     -4.988778     -3.387155     -3.387155      1.785532


 Parallel integral file used       2 records with       0 large values


            General Information
            -------------------
          SCF calculation type: DFT
          Wavefunction type:  closed shell.
          No. of atoms     :     4
          No. of electrons :    10
           Alpha electrons :     5
            Beta electrons :     5
          Charge           :     0
          Spin multiplicity:     1
          Use of symmetry is: on ; symmetry adaption is: on 
          Maximum number of iterations:  30
          AO basis - number of functions:    29
                     number of shells:    15
          Convergence on energy requested:  1.00D-06
          Convergence on density requested:  1.00D-05
          Convergence on gradient requested:  5.00D-04

              XC Information
              --------------
                         B3LYP Method XC Potential
                     Hartree-Fock (Exact) Exchange  0.200          
                        Slater Exchange Functional  0.800 local    
                    Becke 1988 Exchange Functional  0.720 non-local
              Lee-Yang-Parr Correlation Functional  0.810          
                  VWN I RPA Correlation Functional  0.190 local    

             Grid Information
             ----------------
          Grid used for XC integration:  medium    
          Radial quadrature: Mura-Knowles        
          Angular quadrature: Lebedev. 
          Tag              B.-S. Rad. Rad. Pts. Rad. Cut. Ang. Pts.
          ---              ---------- --------- --------- ---------
          N                   0.65       49           5.0       434
          H                   0.35       45           6.0       434
          Grid pruning is: on 
          Number of quadrature shells:   139
          Spatial weights used:  Erf1

          Convergence Information
          -----------------------
          Convergence aids based upon iterative change in 
          total energy or number of iterations. 
          Levelshifting, if invoked, occurs when the 
          HOMO/LUMO gap drops below (HL_TOL):  1.00D-02
          DIIS, if invoked, will attempt to extrapolate 
          using up to (NFOCK): 10 stored Fock matrices.

                    Damping( 0%)  Levelshifting(0.5)       DIIS
                  --------------- ------------------- ---------------
          dE  on:    start            ASAP                start   
          dE off:    2 iters         30 iters            30 iters 


      Screening Tolerance Information
      -------------------------------
          Density screening/tol_rho:  1.00D-10
          AO Gaussian exp screening on grid/accAOfunc:  14
          CD Gaussian exp screening on grid/accCDfunc:  20
          XC Gaussian exp screening on grid/accXCfunc:  20
          Schwarz screening/accCoul:  1.00D-08



                            NWChem DFT Gradient Module
                            --------------------------


                               nh3 in def2-svp basis



  charge          =   0.00
  wavefunction    = closed shell

  Using symmetry


                         DFT ENERGY GRADIENTS

    atom               coordinates                        gradient
                 x          y          z           x          y          z
   1 N       0.096321  -0.188044   0.000000   -2.025007  -2.431048   0.000000
   2 H      -0.105519   1.132862  -0.944863    0.023012  -0.119813   0.210989
   3 H      -0.105519   1.132862   0.944863    0.023012  -0.119813  -0.210989
   4 H      -0.463211  -0.949417   0.000000    1.978983   2.670674   0.000000

                 ----------------------------------------
                 |  Time  |  1-e(secs)   |  2-e(secs)   |
                 ----------------------------------------
                 |  CPU   |       0.00   |       0.05   |
                 ----------------------------------------
                 |  WALL  |       0.00   |       0.05   |
                 ----------------------------------------
  no constraints, skipping    0.0000000000000000     

@ Step       Energy      Delta E   Gmax     Grms     Xrms     Xmax   Walltime
@ ---- ---------------- -------- -------- -------- -------- -------- --------
@    0     -55.53638363  0.0D+00  3.32396  1.36346  0.00000  0.00000      5.3
                                                                    



                                Z-matrix (autoz)
                                -------- 

 Units are Angstrom for bonds and degrees for angles

      Type          Name      I     J     K     L     M      Value     Gradient
      ----------- --------  ----- ----- ----- ----- ----- ---------- ----------
    1 Stretch                  1     2                       0.86603   -0.22136
    2 Stretch                  1     3                       0.86603   -0.22136
    3 Stretch                  1     4                       0.50000   -3.32396
    4 Bend                     2     1     3                70.52878   -0.08591
    5 Bend                     2     1     4               125.26439    0.00465
    6 Bend                     3     1     4               125.26439    0.00465

 Restricting large step in mode    1 eval= 3.9D-02 step=-8.8D+00 new=-3.0D-01
 Restricting large step in mode    2 eval= 5.3D-02 step= 3.4D+00 new= 3.0D-01
 Restricting large step in mode    4 eval= 4.5D-01 step=-2.8D+00 new=-3.0D-01
 Restricting large step in mode    6 eval= 6.0D-01 step= 5.1D+00 new= 3.0D-01
 Restricting overall step due to large component. alpha=  0.67
  no constraints, skipping    0.0000000000000000     
  no constraints, skipping    0.0000000000000000     
  no constraints, skipping    0.0000000000000000     
  no constraints, skipping    0.0000000000000000     
  no constraints, skipping    0.0000000000000000     

                                 NWChem DFT Module
                                 -----------------


                               nh3 in def2-svp basis




 Summary of "ao basis" -> "ao basis" (spherical)
 ------------------------------------------------------------------------------
       Tag                 Description            Shells   Functions and Types
 ---------------- ------------------------------  ------  ---------------------
 N                          def2-svp                 6       14   3s2p1d
 H                          def2-svp                 3        5   2s1p


      Symmetry analysis of basis
      --------------------------

        a'         19
        a"         10

  Caching 1-el integrals 

            General Information
            -------------------
          SCF calculation type: DFT
          Wavefunction type:  closed shell.
          No. of atoms     :     4
          No. of electrons :    10
           Alpha electrons :     5
            Beta electrons :     5
          Charge           :     0
          Spin multiplicity:     1
          Use of symmetry is: on ; symmetry adaption is: on 
          Maximum number of iterations:  30
          AO basis - number of functions:    29
                     number of shells:    15
          Convergence on energy requested:  1.00D-06
          Convergence on density requested:  1.00D-05
          Convergence on gradient requested:  5.00D-04

              XC Information
              --------------
                         B3LYP Method XC Potential
                     Hartree-Fock (Exact) Exchange  0.200          
                        Slater Exchange Functional  0.800 local    
                    Becke 1988 Exchange Functional  0.720 non-local
              Lee-Yang-Parr Correlation Functional  0.810          
                  VWN I RPA Correlation Functional  0.190 local    

             Grid Information
             ----------------
          Grid used for XC integration:  medium    
          Radial quadrature: Mura-Knowles        
          Angular quadrature: Lebedev. 
          Tag              B.-S. Rad. Rad. Pts. Rad. Cut. Ang. Pts.
          ---              ---------- --------- --------- ---------
          N                   0.65       49           5.0       434
          H                   0.35       45           6.0       434
          Grid pruning is: on 
          Number of quadrature shells:   139
          Spatial weights used:  Erf1

          Convergence Information
          -----------------------
          Convergence aids based upon iterative change in 
          total energy or number of iterations. 
          Levelshifting, if invoked, occurs when the 
          HOMO/LUMO gap drops below (HL_TOL):  1.00D-02
          DIIS, if invoked, will attempt to extrapolate 
          using up to (NFOCK): 10 stored Fock matrices.

                    Damping( 0%)  Levelshifting(0.5)       DIIS
                  --------------- ------------------- ---------------
          dE  on:    start            ASAP                start   
          dE off:    2 iters         30 iters            30 iters 


      Screening Tolerance Information
      -------------------------------
          Density screening/tol_rho:  1.00D-10
          AO Gaussian exp screening on grid/accAOfunc:  14
          CD Gaussian exp screening on grid/accCDfunc:  20
          XC Gaussian exp screening on grid/accXCfunc:  20
          Schwarz screening/accCoul:  1.00D-08


 Loading old vectors from job with title :

nh3 in def2-svp basis


      Symmetry analysis of molecular orbitals - initial
      -------------------------------------------------

  Numbering of irreducible representations: 

     1 a'          2 a"      

  Orbital symmetries:

     1 a'          2 a'          3 a'          4 a"          5 a'      
     6 a'          7 a'          8 a"          9 a"         10 a'      
    11 a'         12 a'         13 a'         14 a"         15 a'      

   Time after variat. SCF:      5.4
   Time prior to 1st pass:      5.4

 Integral file          = ./nh3.aoints.0
 Record size in doubles =    65536    No. of integs per rec  =    43688
 Max. records in memory =        4    Max. records in file   =  2842872
 No. of bits per label  =        8    No. of bits per value  =       64


 #quartets = 4.593D+03 #integrals = 5.538D+04 #direct =  0.0% #cached =100.0%


 Grid_pts file          = ./nh3.gridpts.0
 Record size in doubles =  12289        No. of grid_pts per rec  =   3070
 Max. records in memory =     23        Max. recs in file   =  15160756


           Memory utilization after 1st SCF pass: 
           Heap Space remaining (MW):       12.56            12560608
          Stack Space remaining (MW):       13.11            13106876

   convergence    iter        energy       DeltaE   RMS-Dens  Diis-err    time
 ---------------- ----- ----------------- --------- --------- ---------  ------
 d= 0,ls=0.0,diis     1    -56.1081041188 -7.19D+01  2.25D-02  2.76D-01     9.0
 d= 0,ls=0.0,diis     2    -56.1264257449 -1.83D-02  3.90D-03  1.28D-02     9.1
 d= 0,ls=0.0,diis     3    -56.1271057893 -6.80D-04  1.72D-03  6.68D-03     9.2
 d= 0,ls=0.0,diis     4    -56.1277430486 -6.37D-04  2.52D-04  1.61D-04     9.3
 d= 0,ls=0.0,diis     5    -56.1277578010 -1.48D-05  2.24D-05  5.25D-07     9.4
 d= 0,ls=0.0,diis     6    -56.1277578629 -6.19D-08  1.85D-06  6.66D-09     9.5


         Total DFT energy =      -56.127757862893
      One electron energy =     -105.908820614737
           Coulomb energy =       42.388208295033
    Exchange-Corr. energy =       -8.413326849066
 Nuclear repulsion energy =       15.806181305878

 Numeric. integr. density =       10.000000059902

     Total iterative time =      4.0s



                  Occupations of the irreducible representations
                  ----------------------------------------------

                     irrep           alpha         beta
                     --------     --------     --------
                     a'                4.0          4.0
                     a"                1.0          1.0


                       DFT Final Molecular Orbital Analysis
                       ------------------------------------

 Vector    1  Occ=2.000000D+00  E=-1.423987D+01  Symmetry=a'
              MO Center=  1.1D-01, -5.0D-02, -2.5D-18, r^2= 2.0D-02
   Bfn.  Coefficient  Atom+Function         Bfn.  Coefficient  Atom+Function  
  ----- ------------  ---------------      ----- ------------  ---------------
     1      0.987349  1 N  s                  2     -0.058228  1 N  s          

 Vector    2  Occ=2.000000D+00  E=-9.734531D-01  Symmetry=a'
              MO Center= -8.7D-02,  1.0D-01,  1.6D-16, r^2= 5.7D-01
   Bfn.  Coefficient  Atom+Function         Bfn.  Coefficient  Atom+Function  
  ----- ------------  ---------------      ----- ------------  ---------------
     2      0.406804  1 N  s                 25      0.302643  4 H  s          
     1      0.266039  1 N  s                 15      0.259789  2 H  s          
    20      0.259789  3 H  s                  4      0.116336  1 N  px         
    26      0.061976  4 H  s                  5     -0.054828  1 N  py         
     3     -0.053862  1 N  s                  7      0.044977  1 N  px         

 Vector    3  Occ=2.000000D+00  E=-6.413450D-01  Symmetry=a'
              MO Center= -5.7D-02, -9.1D-02,  5.3D-16, r^2= 6.6D-01
   Bfn.  Coefficient  Atom+Function         Bfn.  Coefficient  Atom+Function  
  ----- ------------  ---------------      ----- ------------  ---------------
     5      0.500679  1 N  py                25      0.414918  4 H  s          
    15     -0.224627  2 H  s                 20     -0.224627  3 H  s          
     4      0.147816  1 N  px                26      0.138886  4 H  s          
    16     -0.059764  2 H  s                 21     -0.059764  3 H  s          
    10      0.042612  1 N  d -2               1      0.041544  1 N  s          

 Vector    4  Occ=2.000000D+00  E=-4.172947D-01  Symmetry=a"
              MO Center=  3.6D-02,  1.7D-01, -3.3D-16, r^2= 8.0D-01
   Bfn.  Coefficient  Atom+Function         Bfn.  Coefficient  Atom+Function  
  ----- ------------  ---------------      ----- ------------  ---------------
     6      0.522168  1 N  pz                15      0.317584  2 H  s          
    20     -0.317584  3 H  s                  9     -0.223765  1 N  pz         
    16      0.180870  2 H  s                 21     -0.180870  3 H  s          
    11     -0.027343  1 N  d -1       

 Vector    5  Occ=2.000000D+00  E=-2.676669D-01  Symmetry=a'
              MO Center=  3.4D-01, -8.9D-02, -2.4D-17, r^2= 7.1D-01
   Bfn.  Coefficient  Atom+Function         Bfn.  Coefficient  Atom+Function  
  ----- ------------  ---------------      ----- ------------  ---------------
     4      0.551708  1 N  px                 7     -0.422889  1 N  px         
     3     -0.302932  1 N  s                  2     -0.173912  1 N  s          
     5     -0.117891  1 N  py                 1     -0.091219  1 N  s          
     8      0.089361  1 N  py                25      0.068345  4 H  s          
    15      0.060969  2 H  s                 20      0.060969  3 H  s          

 Vector    6  Occ=0.000000D+00  E= 7.447249D-02  Symmetry=a'
              MO Center= -3.0D-01,  7.4D-01,  4.1D-15, r^2= 3.2D+00
   Bfn.  Coefficient  Atom+Function         Bfn.  Coefficient  Atom+Function  
  ----- ------------  ---------------      ----- ------------  ---------------
     3      1.742316  1 N  s                 16     -0.959046  2 H  s          
    21     -0.959046  3 H  s                 26     -0.621579  4 H  s          
     8      0.292424  1 N  py                 7     -0.157026  1 N  px         
     5     -0.135200  1 N  py                 2      0.107046  1 N  s          
     1      0.103109  1 N  s                  4      0.064910  1 N  px         

 Vector    7  Occ=0.000000D+00  E= 1.626292D-01  Symmetry=a'
              MO Center= -5.5D-01, -7.1D-01, -1.2D-14, r^2= 3.3D+00
   Bfn.  Coefficient  Atom+Function         Bfn.  Coefficient  Atom+Function  
  ----- ------------  ---------------      ----- ------------  ---------------
    26      2.497820  4 H  s                 16     -0.794076  2 H  s          
    21     -0.794076  3 H  s                  3     -0.717460  1 N  s          
     8      0.719240  1 N  py                 5     -0.239124  1 N  py         
     7      0.209902  1 N  px                 4     -0.068289  1 N  px         
    25     -0.059366  4 H  s                  1     -0.028961  1 N  s          

 Vector    8  Occ=0.000000D+00  E= 1.773838D-01  Symmetry=a"
              MO Center= -1.2D-01,  8.3D-01,  6.1D-15, r^2= 3.3D+00
   Bfn.  Coefficient  Atom+Function         Bfn.  Coefficient  Atom+Function  
  ----- ------------  ---------------      ----- ------------  ---------------
    16      2.244660  2 H  s                 21     -2.244660  3 H  s          
     9      0.786046  1 N  pz                 6     -0.321399  1 N  pz         
    15      0.050941  2 H  s                 20     -0.050941  3 H  s          

 Vector    9  Occ=0.000000D+00  E= 5.485221D-01  Symmetry=a"
              MO Center=  5.9D-02,  7.3D-02,  1.1D-15, r^2= 1.6D+00
   Bfn.  Coefficient  Atom+Function         Bfn.  Coefficient  Atom+Function  
  ----- ------------  ---------------      ----- ------------  ---------------
     9      0.954649  1 N  pz                15      0.903739  2 H  s          
    20     -0.903739  3 H  s                 16     -0.285917  2 H  s          
    21      0.285917  3 H  s                 19     -0.133839  2 H  pz         
    24     -0.133839  3 H  pz                11     -0.109728  1 N  d -1       
     6      0.055345  1 N  pz                29      0.048950  4 H  pz         

 Vector   10  Occ=0.000000D+00  E= 6.992232D-01  Symmetry=a'
              MO Center=  2.0D-01,  3.3D-02,  5.6D-16, r^2= 1.6D+00
   Bfn.  Coefficient  Atom+Function         Bfn.  Coefficient  Atom+Function  
  ----- ------------  ---------------      ----- ------------  ---------------
     3      1.468454  1 N  s                  7     -1.436644  1 N  px         
    26     -1.048748  4 H  s                 25     -0.769638  4 H  s          
     4     -0.741163  1 N  px                 8     -0.571137  1 N  py         
    27      0.123734  4 H  px                 5      0.097542  1 N  py         
     2      0.059573  1 N  s                 19     -0.055528  2 H  pz         

 Vector   11  Occ=0.000000D+00  E= 7.350404D-01  Symmetry=a'
              MO Center=  2.0D-01, -2.7D-01,  1.5D-15, r^2= 1.6D+00
   Bfn.  Coefficient  Atom+Function         Bfn.  Coefficient  Atom+Function  
  ----- ------------  ---------------      ----- ------------  ---------------
     3      1.684910  1 N  s                  8     -1.556678  1 N  py         
    26     -1.380935  4 H  s                 25     -0.875169  4 H  s          
     2     -0.653754  1 N  s                 16      0.369058  2 H  s          
    21      0.369058  3 H  s                  5     -0.350683  1 N  py         
     4      0.280994  1 N  px                28      0.258111  4 H  py         

 Vector   12  Occ=0.000000D+00  E= 8.094898D-01  Symmetry=a'
              MO Center=  2.9D-02,  6.2D-02, -1.1D-15, r^2= 1.4D+00
   Bfn.  Coefficient  Atom+Function         Bfn.  Coefficient  Atom+Function  
  ----- ------------  ---------------      ----- ------------  ---------------
     3      1.783958  1 N  s                  8      1.594417  1 N  py         
    15     -0.992243  2 H  s                 20     -0.992243  3 H  s          
    16     -0.398857  2 H  s                 21     -0.398857  3 H  s          
     2     -0.279597  1 N  s                  7     -0.280063  1 N  px         
    26      0.267650  4 H  s                 18     -0.210950  2 H  py         

 Vector   13  Occ=0.000000D+00  E= 8.396739D-01  Symmetry=a'
              MO Center=  9.6D-03,  6.6D-01,  5.2D-16, r^2= 1.8D+00
   Bfn.  Coefficient  Atom+Function         Bfn.  Coefficient  Atom+Function  
  ----- ------------  ---------------      ----- ------------  ---------------
     3      3.271766  1 N  s                  2     -1.467659  1 N  s          
    16     -1.046694  2 H  s                 21     -1.046694  3 H  s          
     8      0.925661  1 N  py                 5      0.400138  1 N  py         
     1     -0.253687  1 N  s                 26     -0.176920  4 H  s          
    18      0.161489  2 H  py                23      0.161489  3 H  py         

 Vector   14  Occ=0.000000D+00  E= 8.973564D-01  Symmetry=a"
              MO Center=  7.0D-02,  2.2D-01, -7.9D-16, r^2= 2.0D+00
   Bfn.  Coefficient  Atom+Function         Bfn.  Coefficient  Atom+Function  
  ----- ------------  ---------------      ----- ------------  ---------------
    16      1.709685  2 H  s                 21     -1.709685  3 H  s          
     9      1.643558  1 N  pz                 6      0.823843  1 N  pz         
    18     -0.206793  2 H  py                23      0.206793  3 H  py         
    29     -0.188205  4 H  pz                15     -0.127627  2 H  s          
    20      0.127627  3 H  s                 11      0.102192  1 N  d -1       

 Vector   15  Occ=0.000000D+00  E= 1.045667D+00  Symmetry=a'
              MO Center= -3.4D-01, -6.0D-01,  1.1D-15, r^2= 1.2D+00
   Bfn.  Coefficient  Atom+Function         Bfn.  Coefficient  Atom+Function  
  ----- ------------  ---------------      ----- ------------  ---------------
     3      2.057991  1 N  s                 26     -1.839831  4 H  s          
     8     -0.787563  1 N  py                 2     -0.774750  1 N  s          
     5     -0.542989  1 N  py                 7     -0.509271  1 N  px         
    25      0.305032  4 H  s                 27     -0.304499  4 H  px         
    28     -0.295746  4 H  py                16      0.193065  2 H  s          

 Vector   16  Occ=0.000000D+00  E= 1.306779D+00  Symmetry=a'
              MO Center= -6.2D-03,  4.9D-01,  1.0D-15, r^2= 7.8D-01
   Bfn.  Coefficient  Atom+Function         Bfn.  Coefficient  Atom+Function  
  ----- ------------  ---------------      ----- ------------  ---------------
     3      0.839665  1 N  s                 15     -0.483428  2 H  s          
    20     -0.483428  3 H  s                 19      0.437919  2 H  pz         
    24     -0.437919  3 H  pz                 8      0.357522  1 N  py         
    17     -0.307775  2 H  px                22     -0.307775  3 H  px         
     4     -0.196788  1 N  px                18      0.177411  2 H  py         

 Vector   17  Occ=0.000000D+00  E= 1.395961D+00  Symmetry=a"
              MO Center= -7.6D-02,  1.6D-01, -1.3D-15, r^2= 9.1D-01
   Bfn.  Coefficient  Atom+Function         Bfn.  Coefficient  Atom+Function  
  ----- ------------  ---------------      ----- ------------  ---------------
    29      0.601284  4 H  pz                17      0.546477  2 H  px         
    22     -0.546477  3 H  px                13      0.216497  1 N  d  1       
     6      0.203216  1 N  pz                 9     -0.200628  1 N  pz         
    15     -0.065094  2 H  s                 20      0.065094  3 H  s          
    11      0.058284  1 N  d -1              19      0.055520  2 H  pz         

 Vector   18  Occ=0.000000D+00  E= 1.779565D+00  Symmetry=a'
              MO Center= -1.6D-01,  1.6D-01, -2.8D-15, r^2= 1.2D+00
   Bfn.  Coefficient  Atom+Function         Bfn.  Coefficient  Atom+Function  
  ----- ------------  ---------------      ----- ------------  ---------------
     3      2.109839  1 N  s                  2     -1.185115  1 N  s          
     7     -0.950801  1 N  px                27      0.661138  4 H  px         
    26     -0.634697  4 H  s                 17      0.602971  2 H  px         
    22      0.602971  3 H  px                25     -0.542650  4 H  s          
    28      0.380926  4 H  py                19      0.337672  2 H  pz         

 Vector   19  Occ=0.000000D+00  E= 1.858236D+00  Symmetry=a"
              MO Center= -1.6D-01,  1.3D-01, -5.0D-16, r^2= 1.1D+00
   Bfn.  Coefficient  Atom+Function         Bfn.  Coefficient  Atom+Function  
  ----- ------------  ---------------      ----- ------------  ---------------
    29      0.865108  4 H  pz                18     -0.559226  2 H  py         
    23      0.559226  3 H  py                17     -0.361469  2 H  px         
    22      0.361469  3 H  px                 9     -0.336887  1 N  pz         
    15     -0.103516  2 H  s                 20      0.103516  3 H  s          
    13     -0.061183  1 N  d  1              16     -0.044390  2 H  s          

 Vector   20  Occ=0.000000D+00  E= 1.971528D+00  Symmetry=a'
              MO Center= -1.6D-01, -2.2D-01, -7.0D-17, r^2= 1.1D+00
   Bfn.  Coefficient  Atom+Function         Bfn.  Coefficient  Atom+Function  
  ----- ------------  ---------------      ----- ------------  ---------------
     8      1.368219  1 N  py                 3      1.032353  1 N  s          
    27      0.872554  4 H  px                28     -0.782833  4 H  py         
     2     -0.695107  1 N  s                 15     -0.526573  2 H  s          
    20     -0.526573  3 H  s                 18     -0.390185  2 H  py         
    23     -0.390185  3 H  py                25      0.382796  4 H  s          

 Vector   21  Occ=0.000000D+00  E= 2.251474D+00  Symmetry=a"
              MO Center= -4.5D-02,  3.5D-01, -6.0D-15, r^2= 9.7D-01
   Bfn.  Coefficient  Atom+Function         Bfn.  Coefficient  Atom+Function  
  ----- ------------  ---------------      ----- ------------  ---------------
     6      0.674532  1 N  pz                18      0.622131  2 H  py         
    23     -0.622131  3 H  py                29      0.520076  4 H  pz         
    17     -0.505509  2 H  px                22      0.505509  3 H  px         
     9     -0.490174  1 N  pz                19      0.400300  2 H  pz         
    24      0.400300  3 H  pz                16     -0.302486  2 H  s          

 Vector   22  Occ=0.000000D+00  E= 2.555151D+00  Symmetry=a"
              MO Center= -6.3D-03,  3.9D-01, -1.1D-14, r^2= 9.6D-01
   Bfn.  Coefficient  Atom+Function         Bfn.  Coefficient  Atom+Function  
  ----- ------------  ---------------      ----- ------------  ---------------
    19      1.110034  2 H  pz                24      1.110034  3 H  pz         
    11     -0.512422  1 N  d -1               9     -0.414990  1 N  pz         
    15      0.361576  2 H  s                 20     -0.361576  3 H  s          
     6     -0.297380  1 N  pz                13     -0.233902  1 N  d  1       
    16      0.110040  2 H  s                 21     -0.110040  3 H  s          

 Vector   23  Occ=0.000000D+00  E= 2.663677D+00  Symmetry=a'
              MO Center=  6.6D-02,  1.3D-02,  2.3D-14, r^2= 7.4D-01
   Bfn.  Coefficient  Atom+Function         Bfn.  Coefficient  Atom+Function  
  ----- ------------  ---------------      ----- ------------  ---------------
    12      1.098673  1 N  d  0               3     -0.460551  1 N  s          
    27     -0.411146  4 H  px                 7      0.403013  1 N  px         
    19      0.368421  2 H  pz                24     -0.368421  3 H  pz         
    25      0.277635  4 H  s                  5      0.264995  1 N  py         
    17     -0.256466  2 H  px                22     -0.256466  3 H  px         

 Vector   24  Occ=0.000000D+00  E= 2.840674D+00  Symmetry=a'
              MO Center=  4.5D-02,  2.5D-02,  3.7D-15, r^2= 8.4D-01
   Bfn.  Coefficient  Atom+Function         Bfn.  Coefficient  Atom+Function  
  ----- ------------  ---------------      ----- ------------  ---------------
    10      1.048739  1 N  d -2               5     -0.623592  1 N  py         
    27      0.569237  4 H  px                 8     -0.559391  1 N  py         
    25     -0.415829  4 H  s                 18      0.380156  2 H  py         
    23      0.380156  3 H  py                17     -0.365264  2 H  px         
    22     -0.365264  3 H  px                 2      0.316526  1 N  s          

 Vector   25  Occ=0.000000D+00  E= 2.959515D+00  Symmetry=a'
              MO Center=  2.9D-02,  1.1D-01, -1.1D-14, r^2= 8.8D-01
   Bfn.  Coefficient  Atom+Function         Bfn.  Coefficient  Atom+Function  
  ----- ------------  ---------------      ----- ------------  ---------------
     2      1.653044  1 N  s                 28     -0.807338  4 H  py         
    14      0.779308  1 N  d  2              15     -0.757120  2 H  s          
    20     -0.757120  3 H  s                 18      0.717827  2 H  py         
    23      0.717827  3 H  py                 5     -0.699504  1 N  py         
     4      0.690876  1 N  px                10     -0.488073  1 N  d -2       

 Vector   26  Occ=0.000000D+00  E= 3.101105D+00  Symmetry=a"
              MO Center=  6.2D-02, -1.1D-02,  4.5D-15, r^2= 8.6D-01
   Bfn.  Coefficient  Atom+Function         Bfn.  Coefficient  Atom+Function  
  ----- ------------  ---------------      ----- ------------  ---------------
    13      1.221423  1 N  d  1              29     -1.044590  4 H  pz         
     9      0.711867  1 N  pz                 6     -0.676684  1 N  pz         
    15      0.473746  2 H  s                 20     -0.473746  3 H  s          
    18     -0.465648  2 H  py                23      0.465648  3 H  py         
    16      0.406060  2 H  s                 21     -0.406060  3 H  s          

 Vector   27  Occ=0.000000D+00  E= 3.482532D+00  Symmetry=a'
              MO Center=  6.5D-02,  1.2D-01, -2.2D-14, r^2= 8.6D-01
   Bfn.  Coefficient  Atom+Function         Bfn.  Coefficient  Atom+Function  
  ----- ------------  ---------------      ----- ------------  ---------------
     2      1.627306  1 N  s                 15     -1.584596  2 H  s          
    20     -1.584596  3 H  s                 14     -1.302746  1 N  d  2       
     5     -1.206888  1 N  py                 3      1.145002  1 N  s          
     8      1.053130  1 N  py                18      0.747056  2 H  py         
    23      0.747056  3 H  py                19     -0.620046  2 H  pz         

 Vector   28  Occ=0.000000D+00  E= 3.896906D+00  Symmetry=a"
              MO Center=  4.3D-02,  9.1D-02,  2.1D-14, r^2= 8.5D-01
   Bfn.  Coefficient  Atom+Function         Bfn.  Coefficient  Atom+Function  
  ----- ------------  ---------------      ----- ------------  ---------------
    15      2.109987  2 H  s                 20     -2.109987  3 H  s          
    11      1.661578  1 N  d -1               6     -1.028422  1 N  pz         
    19      1.011443  2 H  pz                24      1.011443  3 H  pz         
    18     -0.924871  2 H  py                23      0.924871  3 H  py         
     9      0.547554  1 N  pz                29      0.505643  4 H  pz         

 Vector   29  Occ=0.000000D+00  E= 4.625994D+00  Symmetry=a'
              MO Center= -1.1D-01, -2.6D-01,  1.4D-15, r^2= 6.8D-01
   Bfn.  Coefficient  Atom+Function         Bfn.  Coefficient  Atom+Function  
  ----- ------------  ---------------      ----- ------------  ---------------
    25      5.070373  4 H  s                  2     -4.567872  1 N  s          
    28      1.845527  4 H  py                 3     -1.608437  1 N  s          
    27      1.591542  4 H  px                 4     -1.457537  1 N  px         
     5     -1.373360  1 N  py                10     -0.825668  1 N  d -2       
     7      0.750693  1 N  px                 8      0.681711  1 N  py         


 center of mass
 --------------
 x =   0.12140276 y =  -0.00586852 z =   0.00000000

 moments of inertia (a.u.)
 ------------------
           5.702407507806          -0.095715240735           0.000000000000
          -0.095715240735           2.416911593780           0.000000000000
           0.000000000000           0.000000000000           4.633439528591

     Multipole analysis of the density
     ---------------------------------

     L   x y z        total         alpha         beta         nuclear
     -   - - -        -----         -----         ----         -------
     0   0 0 0     -0.000000     -5.000000     -5.000000     10.000000

     1   1 0 0     -0.624880     -0.635128     -0.635128      0.645375
     1   0 1 0      0.387400     -0.084863     -0.084863      0.557125
     1   0 0 1      0.000000      0.000000      0.000000      0.000000

     2   2 0 0     -5.826904     -3.229027     -3.229027      0.631150
     2   1 1 0      0.310163      0.046712      0.046712      0.216739
     2   1 0 1      0.000000      0.000000      0.000000      0.000000
     2   0 2 0     -4.005045     -3.935941     -3.935941      3.866837
     2   0 1 1      0.000000      0.000000      0.000000      0.000000
     2   0 0 2     -5.081324     -3.405366     -3.405366      1.729407


 Parallel integral file used       2 records with       0 large values

 Line search: 
     step= 0.67 grad=-1.5D+00 hess= 8.7D-01 energy=    -56.127758 mode=downhill
 new step= 0.84                   predicted energy=    -56.154243
  no constraints, skipping    0.0000000000000000     
  no constraints, skipping    0.0000000000000000     
  no constraints, skipping    0.0000000000000000     
  no constraints, skipping    0.0000000000000000     
  no constraints, skipping    0.0000000000000000     

          --------
          Step   1
          --------


                         Geometry "geometry" -> "geometry"
                         ---------------------------------

 Output coordinates in angstroms (scale by  1.889725989 to convert to a.u.)

  No.       Tag          Charge          X              Y              Z
 ---- ---------------- ---------- -------------- -------------- --------------
    1 N                    7.0000     0.12274895    -0.03702000     0.00000000
    2 H                    1.0000    -0.05872939     0.61033875    -0.48991865
    3 H                    1.0000    -0.05872939     0.61033875     0.48991865
    4 H                    1.0000    -0.31111663    -0.58660625     0.00000000

      Atomic Mass 
      ----------- 

      N                 14.003070
      H                  1.007825


 Effective nuclear repulsion energy (a.u.)      15.5391581262

            Nuclear Dipole moment (a.u.) 
            ----------------------------
        X                 Y               Z
 ---------------- ---------------- ----------------
     0.8138430399     0.7085172612     0.0000000000

      Symmetry information
      --------------------

 Group name             Cs        
 Group number              2
 Group order               2
 No. of unique centers     3

      Symmetry unique atoms

     1    2    4


                                 NWChem DFT Module
                                 -----------------


                               nh3 in def2-svp basis




 Summary of "ao basis" -> "ao basis" (spherical)
 ------------------------------------------------------------------------------
       Tag                 Description            Shells   Functions and Types
 ---------------- ------------------------------  ------  ---------------------
 N                          def2-svp                 6       14   3s2p1d
 H                          def2-svp                 3        5   2s1p


      Symmetry analysis of basis
      --------------------------

        a'         19
        a"         10

  Caching 1-el integrals 

            General Information
            -------------------
          SCF calculation type: DFT
          Wavefunction type:  closed shell.
          No. of atoms     :     4
          No. of electrons :    10
           Alpha electrons :     5
            Beta electrons :     5
          Charge           :     0
          Spin multiplicity:     1
          Use of symmetry is: on ; symmetry adaption is: on 
          Maximum number of iterations:  30
          AO basis - number of functions:    29
                     number of shells:    15
          Convergence on energy requested:  1.00D-06
          Convergence on density requested:  1.00D-05
          Convergence on gradient requested:  5.00D-04

              XC Information
              --------------
                         B3LYP Method XC Potential
                     Hartree-Fock (Exact) Exchange  0.200          
                        Slater Exchange Functional  0.800 local    
                    Becke 1988 Exchange Functional  0.720 non-local
              Lee-Yang-Parr Correlation Functional  0.810          
                  VWN I RPA Correlation Functional  0.190 local    

             Grid Information
             ----------------
          Grid used for XC integration:  medium    
          Radial quadrature: Mura-Knowles        
          Angular quadrature: Lebedev. 
          Tag              B.-S. Rad. Rad. Pts. Rad. Cut. Ang. Pts.
          ---              ---------- --------- --------- ---------
          N                   0.65       49           5.0       434
          H                   0.35       45           6.0       434
          Grid pruning is: on 
          Number of quadrature shells:   139
          Spatial weights used:  Erf1

          Convergence Information
          -----------------------
          Convergence aids based upon iterative change in 
          total energy or number of iterations. 
          Levelshifting, if invoked, occurs when the 
          HOMO/LUMO gap drops below (HL_TOL):  1.00D-02
          DIIS, if invoked, will attempt to extrapolate 
          using up to (NFOCK): 10 stored Fock matrices.

                    Damping( 0%)  Levelshifting(0.5)       DIIS
                  --------------- ------------------- ---------------
          dE  on:    start            ASAP                start   
          dE off:    2 iters         30 iters            30 iters 


      Screening Tolerance Information
      -------------------------------
          Density screening/tol_rho:  1.00D-10
          AO Gaussian exp screening on grid/accAOfunc:  14
          CD Gaussian exp screening on grid/accCDfunc:  20
          XC Gaussian exp screening on grid/accXCfunc:  20
          Schwarz screening/accCoul:  1.00D-08


 Loading old vectors from job with title :

nh3 in def2-svp basis


      Symmetry analysis of molecular orbitals - initial
      -------------------------------------------------

  Numbering of irreducible representations: 

     1 a'          2 a"      

  Orbital symmetries:

     1 a'          2 a'          3 a'          4 a"          5 a'      
     6 a'          7 a'          8 a"          9 a"         10 a'      
    11 a'         12 a'         13 a'         14 a"         15 a'      

   Time after variat. SCF:      9.9
   Time prior to 1st pass:      9.9

 Integral file          = ./nh3.aoints.0
 Record size in doubles =    65536    No. of integs per rec  =    43688
 Max. records in memory =        4    Max. records in file   =  2842870
 No. of bits per label  =        8    No. of bits per value  =       64


 #quartets = 4.593D+03 #integrals = 5.538D+04 #direct =  0.0% #cached =100.0%


 Grid_pts file          = ./nh3.gridpts.0
 Record size in doubles =  12289        No. of grid_pts per rec  =   3070
 Max. records in memory =     23        Max. recs in file   =  15160746


           Memory utilization after 1st SCF pass: 
           Heap Space remaining (MW):       12.56            12560608
          Stack Space remaining (MW):       13.11            13106876

   convergence    iter        energy       DeltaE   RMS-Dens  Diis-err    time
 ---------------- ----- ----------------- --------- --------- ---------  ------
 d= 0,ls=0.0,diis     1    -56.1970474117 -7.17D+01  3.93D-03  8.54D-03    13.8
 d= 0,ls=0.0,diis     2    -56.1978098051 -7.62D-04  9.05D-04  8.43D-04    13.8
 d= 0,ls=0.0,diis     3    -56.1978610589 -5.13D-05  3.82D-04  3.36D-04    13.9
 d= 0,ls=0.0,diis     4    -56.1978928899 -3.18D-05  5.31D-05  6.53D-06    14.0
 d= 0,ls=0.0,diis     5    -56.1978935008 -6.11D-07  5.58D-06  3.85D-08    14.1


         Total DFT energy =      -56.197893500784
      One electron energy =     -105.560327002058
           Coulomb energy =       42.214082150068
    Exchange-Corr. energy =       -8.390806775040
 Nuclear repulsion energy =       15.539158126246

 Numeric. integr. density =        9.999999555405

     Total iterative time =      4.2s



                  Occupations of the irreducible representations
                  ----------------------------------------------

                     irrep           alpha         beta
                     --------     --------     --------
                     a'                4.0          4.0
                     a"                1.0          1.0


[...]
    10      0.501255  1 N  d -2              18      0.406713  2 H  py         
    23      0.406713  3 H  py                 8     -0.378787  1 N  py         
    19      0.289717  2 H  pz                24     -0.289717  3 H  pz         
    27      0.235480  4 H  px                28     -0.182208  4 H  py         

 Vector   27  Occ=0.000000D+00  E= 2.866937D+00  Symmetry=a'
              MO Center=  6.0D-02,  1.1D-01, -5.7D-15, r^2= 1.0D+00
   Bfn.  Coefficient  Atom+Function         Bfn.  Coefficient  Atom+Function  
  ----- ------------  ---------------      ----- ------------  ---------------
     3      1.320656  1 N  s                 14     -0.758356  1 N  d  2       
     2      0.740368  1 N  s                 15     -0.625088  2 H  s          
    20     -0.625088  3 H  s                 25     -0.624994  4 H  s          
    27     -0.582607  4 H  px                12      0.500735  1 N  d  0       
    10      0.421484  1 N  d -2              19     -0.415833  2 H  pz         

 Vector   28  Occ=0.000000D+00  E= 3.324659D+00  Symmetry=a'
              MO Center=  1.3D-01,  9.5D-03, -4.4D-11, r^2= 9.7D-01
   Bfn.  Coefficient  Atom+Function         Bfn.  Coefficient  Atom+Function  
  ----- ------------  ---------------      ----- ------------  ---------------
    25      1.170643  4 H  s                 10     -1.055363  1 N  d -2       
     8      0.966239  1 N  py                12      0.871395  1 N  d  0       
    28      0.803914  4 H  py                 5     -0.678256  1 N  py         
    27      0.626437  4 H  px                15     -0.585419  2 H  s          
    20     -0.585419  3 H  s                 19     -0.419370  2 H  pz         

 Vector   29  Occ=0.000000D+00  E= 3.324708D+00  Symmetry=a"
              MO Center=  1.7D-01,  1.7D-01,  4.4D-11, r^2= 9.7D-01
   Bfn.  Coefficient  Atom+Function         Bfn.  Coefficient  Atom+Function  
  ----- ------------  ---------------      ----- ------------  ---------------
    11      1.206919  1 N  d -1              15      1.013929  2 H  s          
    20     -1.013929  3 H  s                  9      0.998170  1 N  pz         
     6     -0.700730  1 N  pz                19      0.693337  2 H  pz         
    24      0.693337  3 H  pz                13      0.645507  1 N  d  1       
    18     -0.493923  2 H  py                23      0.493923  3 H  py         


 center of mass
 --------------
 x =   0.28270167 y =   0.17129248 z =   0.00000000

 moments of inertia (a.u.)
 ------------------
           9.288268116879          -0.794368449047           0.000000000000
          -0.794368449047           6.430808520657           0.000000000000
           0.000000000000           0.000000000000           6.225309681981

     Multipole analysis of the density
     ---------------------------------

     L   x y z        total         alpha         beta         nuclear
     -   - - -        -----         -----         ----         -------
     0   0 0 0     -0.000000     -5.000000     -5.000000     10.000000

     1   1 0 0     -0.668768     -1.291080     -1.291080      1.913391
     1   0 1 0      0.173393     -0.888222     -0.888222      1.949838
     1   0 0 1     -0.000000     -0.000000     -0.000000      0.000000

     2   2 0 0     -6.519452     -4.175933     -4.175933      1.832414
     2   1 1 0      0.324559     -0.444881     -0.444881      1.214321
     2   1 0 1     -0.000000     -0.000000     -0.000000      0.000000
     2   0 2 0     -4.678669     -4.775613     -4.775613      4.872557
     2   0 1 1     -0.000000     -0.000000     -0.000000      0.000000
     2   0 0 2     -4.637092     -4.673560     -4.673560      4.710028


 Parallel integral file used       2 records with       0 large values

 Line search: 
     step= 1.00 grad=-3.1D-07 hess= 1.4D-07 energy=    -56.509475 mode=accept  
 new step= 1.00                   predicted energy=    -56.509475
  no constraints, skipping    0.0000000000000000     
  no constraints, skipping    0.0000000000000000     
  no constraints, skipping    0.0000000000000000     

          --------
          Step   7
          --------


                         Geometry "geometry" -> "geometry"
                         ---------------------------------

 Output coordinates in angstroms (scale by  1.889725989 to convert to a.u.)

  No.       Tag          Charge          X              Y              Z
 ---- ---------------- ---------- -------------- -------------- --------------
    1 N                    7.0000     0.21972488     0.07245976     0.00000000
    2 H                    1.0000    -0.05749283     0.62873057    -0.81207827
    3 H                    1.0000    -0.05749283     0.62873057     0.81207827
    4 H                    1.0000    -0.41056568    -0.73286967     0.00000000

      Atomic Mass 
      ----------- 

      N                 14.003070
      H                  1.007825


 Effective nuclear repulsion energy (a.u.)      11.8441944866

            Nuclear Dipole moment (a.u.) 
            ----------------------------
        X                 Y               Z
 ---------------- ---------------- ----------------
     1.9133907065     1.9498378159     0.0000000000

      Symmetry information
      --------------------

 Group name             Cs        
 Group number              2
 Group order               2
 No. of unique centers     3

      Symmetry unique atoms

     1    2    4


                                 NWChem DFT Module
                                 -----------------


                               nh3 in def2-svp basis




 Summary of "ao basis" -> "ao basis" (spherical)
 ------------------------------------------------------------------------------
       Tag                 Description            Shells   Functions and Types
 ---------------- ------------------------------  ------  ---------------------
 N                          def2-svp                 6       14   3s2p1d
 H                          def2-svp                 3        5   2s1p


      Symmetry analysis of basis
      --------------------------

        a'         19
        a"         10


  The DFT is already converged 

         Total DFT energy =    -56.509475409542


            General Information
            -------------------
          SCF calculation type: DFT
          Wavefunction type:  closed shell.
          No. of atoms     :     4
          No. of electrons :    10
           Alpha electrons :     5
            Beta electrons :     5
          Charge           :     0
          Spin multiplicity:     1
          Use of symmetry is: on ; symmetry adaption is: on 
          Maximum number of iterations:  30
          AO basis - number of functions:    29
                     number of shells:    15
          Convergence on energy requested:  1.00D-06
          Convergence on density requested:  1.00D-05
          Convergence on gradient requested:  5.00D-04

              XC Information
              --------------
                         B3LYP Method XC Potential
                     Hartree-Fock (Exact) Exchange  0.200          
                        Slater Exchange Functional  0.800 local    
                    Becke 1988 Exchange Functional  0.720 non-local
              Lee-Yang-Parr Correlation Functional  0.810          
                  VWN I RPA Correlation Functional  0.190 local    

             Grid Information
             ----------------
          Grid used for XC integration:  medium    
          Radial quadrature: Mura-Knowles        
          Angular quadrature: Lebedev. 
          Tag              B.-S. Rad. Rad. Pts. Rad. Cut. Ang. Pts.
          ---              ---------- --------- --------- ---------
          N                   0.65       49           6.0       434
          H                   0.35       45           7.0       434
          Grid pruning is: on 
          Number of quadrature shells:   139
          Spatial weights used:  Erf1

          Convergence Information
          -----------------------
          Convergence aids based upon iterative change in 
          total energy or number of iterations. 
          Levelshifting, if invoked, occurs when the 
          HOMO/LUMO gap drops below (HL_TOL):  1.00D-02
          DIIS, if invoked, will attempt to extrapolate 
          using up to (NFOCK): 10 stored Fock matrices.

                    Damping( 0%)  Levelshifting(0.5)       DIIS
                  --------------- ------------------- ---------------
          dE  on:    start            ASAP                start   
          dE off:    2 iters         30 iters            30 iters 


      Screening Tolerance Information
      -------------------------------
          Density screening/tol_rho:  1.00D-10
          AO Gaussian exp screening on grid/accAOfunc:  14
          CD Gaussian exp screening on grid/accCDfunc:  20
          XC Gaussian exp screening on grid/accXCfunc:  20
          Schwarz screening/accCoul:  1.00D-08



                            NWChem DFT Gradient Module
                            --------------------------


                               nh3 in def2-svp basis



  charge          =   0.00
  wavefunction    = closed shell

  Using symmetry


                         DFT ENERGY GRADIENTS

    atom               coordinates                        gradient
                 x          y          z           x          y          z
   1 N       0.415220   0.136929   0.000000   -0.000017   0.000031   0.000000
   2 H      -0.108646   1.188129  -1.534605    0.000012   0.000002   0.000000
   3 H      -0.108646   1.188129   1.534605    0.000012   0.000002  -0.000000
   4 H      -0.775857  -1.384923   0.000000   -0.000007  -0.000035   0.000000

                 ----------------------------------------
                 |  Time  |  1-e(secs)   |  2-e(secs)   |
                 ----------------------------------------
                 |  CPU   |       0.00   |       0.06   |
                 ----------------------------------------
                 |  WALL  |       0.00   |       0.06   |
                 ----------------------------------------
  no constraints, skipping    0.0000000000000000     

  Step       Energy      Delta E   Gmax     Grms     Xrms     Xmax   Walltime
  ---- ---------------- -------- -------- -------- -------- -------- --------
@    7     -56.50947541 -1.7D-07  0.00003  0.00002  0.00033  0.00068     61.9
                                     ok       ok       ok       ok  



                                Z-matrix (autoz)
                                -------- 

 Units are Angstrom for bonds and degrees for angles

      Type          Name      I     J     K     L     M      Value     Gradient
      ----------- --------  ----- ----- ----- ----- ----- ---------- ----------
    1 Stretch                  1     2                       1.02262   -0.00000
    2 Stretch                  1     3                       1.02262   -0.00000
    3 Stretch                  1     4                       1.02265    0.00003
    4 Bend                     2     1     3               105.14311    0.00001
    5 Bend                     2     1     4               105.14657    0.00001
    6 Bend                     3     1     4               105.14657    0.00001


      ----------------------
      Optimization converged
      ----------------------


  Step       Energy      Delta E   Gmax     Grms     Xrms     Xmax   Walltime
  ---- ---------------- -------- -------- -------- -------- -------- --------
@    7     -56.50947541 -1.7D-07  0.00003  0.00002  0.00033  0.00068     61.9
                                     ok       ok       ok       ok  



                                Z-matrix (autoz)
                                -------- 

 Units are Angstrom for bonds and degrees for angles

      Type          Name      I     J     K     L     M      Value     Gradient
      ----------- --------  ----- ----- ----- ----- ----- ---------- ----------
    1 Stretch                  1     2                       1.02262   -0.00000
    2 Stretch                  1     3                       1.02262   -0.00000
    3 Stretch                  1     4                       1.02265    0.00003
    4 Bend                     2     1     3               105.14311    0.00001
    5 Bend                     2     1     4               105.14657    0.00001
    6 Bend                     3     1     4               105.14657    0.00001



                         Geometry "geometry" -> "geometry"
                         ---------------------------------

 Output coordinates in angstroms (scale by  1.889725989 to convert to a.u.)

  No.       Tag          Charge          X              Y              Z
 ---- ---------------- ---------- -------------- -------------- --------------
    1 N                    7.0000     0.21972488     0.07245976     0.00000000
    2 H                    1.0000    -0.05749283     0.62873057    -0.81207827
    3 H                    1.0000    -0.05749283     0.62873057     0.81207827
    4 H                    1.0000    -0.41056568    -0.73286967     0.00000000

      Atomic Mass 
      ----------- 

      N                 14.003070
      H                  1.007825


 Effective nuclear repulsion energy (a.u.)      11.8441944866

            Nuclear Dipole moment (a.u.) 
            ----------------------------
        X                 Y               Z
 ---------------- ---------------- ----------------
     1.9133907065     1.9498378159     0.0000000000

      Symmetry information
      --------------------

 Group name             Cs        
 Group number              2
 Group order               2
 No. of unique centers     3

      Symmetry unique atoms

     1    2    4


                Final and change from initial internal coordinates
                --------------------------------------------------



                                Z-matrix (autoz)
                                -------- 

 Units are Angstrom for bonds and degrees for angles

      Type          Name      I     J     K     L     M      Value       Change
      ----------- --------  ----- ----- ----- ----- ----- ---------- ----------
    1 Stretch                  1     2                       1.02262    0.15660
    2 Stretch                  1     3                       1.02262    0.15660
    3 Stretch                  1     4                       1.02265    0.52265
    4 Bend                     2     1     3               105.14311   34.61433
    5 Bend                     2     1     4               105.14657  -20.11782
    6 Bend                     3     1     4               105.14657  -20.11782

 ==============================================================================
                                internuclear distances
 ------------------------------------------------------------------------------
       center one      |      center two      | atomic units |  angstroms
 ------------------------------------------------------------------------------
    2 H                |   1 N                |     1.93248  |     1.02262
    3 H                |   1 N                |     1.93248  |     1.02262
    4 H                |   1 N                |     1.93254  |     1.02265
 ------------------------------------------------------------------------------
                         number of included internuclear distances:          3
 ==============================================================================



 ==============================================================================
                                 internuclear angles
 ------------------------------------------------------------------------------
        center 1       |       center 2       |       center 3       |  degrees
 ------------------------------------------------------------------------------
    2 H                |   1 N                |   3 H                |   105.14
    2 H                |   1 N                |   4 H                |   105.15
    3 H                |   1 N                |   4 H                |   105.15
 ------------------------------------------------------------------------------
                            number of included internuclear angles:          3
 ==============================================================================




 Task  times  cpu:        8.2s     wall:       61.5s
 Summary of allocated global arrays
-----------------------------------
  No active global arrays



                         GA Statistics for process    0
                         ------------------------------

       create   destroy   get      put      acc     scatter   gather  read&inc
calls: 2405     2405     1.19e+05 1.43e+04 5.45e+04    0        0     9127     
number of processes/call -4.41e+13 3.05e+13 -1.57e+14 0.00e+00 0.00e+00
bytes total:             5.92e+07 1.44e+07 2.97e+07 0.00e+00 0.00e+00 7.30e+04
bytes remote:            0.00e+00 0.00e+00 0.00e+00 0.00e+00 0.00e+00 0.00e+00
Max memory consumed for GA by this process: 262392 bytes
MA_summarize_allocated_blocks: starting scan ...
MA_summarize_allocated_blocks: scan completed: 0 heap blocks, 0 stack blocks
MA usage statistics:

	allocation statistics:
					      heap	     stack
					      ----	     -----
	current number of blocks	         0	         0
	maximum number of blocks	        25	        57
	current total bytes		         0	         0
	maximum total bytes		   4372704	  22511240
	maximum total K-bytes		      4373	     22512
	maximum total M-bytes		         5	        23


                                NWChem Input Module
                                -------------------





                                     CITATION
                                     --------
                Please cite the following reference when publishing
                           results obtained with NWChem:

                 M. Valiev, E.J. Bylaska, N. Govind, K. Kowalski,
              T.P. Straatsma, H.J.J. van Dam, D. Wang, J. Nieplocha,
                        E. Apra, T.L. Windus, W.A. de Jong
                 "NWChem: a comprehensive and scalable open-source
                  solution for large scale molecular simulations"
                      Comput. Phys. Commun. 181, 1477 (2010)
                           doi:10.1016/j.cpc.2010.04.018

                                      AUTHORS
                                      -------
          E. Apra, E. J. Bylaska, W. A. de Jong, N. Govind, K. Kowalski,
       T. P. Straatsma, M. Valiev, H. J. J. van Dam, D. Wang, T. L. Windus,
        J. Hammond, J. Autschbach, K. Bhaskaran-Nair, J. Brabec, K. Lopata,
    S. A. Fischer, S. Krishnamoorthy, M. Jacquelin, W. Ma, M. Klemm, O. Villa,
      Y. Chen, V. Anisimov, F. Aquino, S. Hirata, M. T. Hackler, V. Konjkov,
            D. Mejia-Rodriguez, T. Risthaus, M. Malagoli, A. Marenich,
   A. Otero-de-la-Roza, J. Mullin, P. Nichols, R. Peverati, J. Pittner, Y. Zhao,
        P.-D. Fan, A. Fonari, M. J. Williamson, R. J. Harrison, J. R. Rehr,
      M. Dupuis, D. Silverstein, D. M. A. Smith, J. Nieplocha, V. Tipparaju,
    M. Krishnan, B. E. Van Kuiken, A. Vazquez-Mayagoitia, L. Jensen, M. Swart,
      Q. Wu, T. Van Voorhis, A. A. Auer, M. Nooijen, L. D. Crosby, E. Brown,
      G. Cisneros, G. I. Fann, H. Fruchtl, J. Garza, K. Hirao, R. A. Kendall,
      J. A. Nichols, K. Tsemekhman, K. Wolinski, J. Anchell, D. E. Bernholdt,
      P. Borowski, T. Clark, D. Clerc, H. Dachsel, M. J. O. Deegan, K. Dyall,
    D. Elwood, E. Glendening, M. Gutowski, A. C. Hess, J. Jaffe, B. G. Johnson,
     J. Ju, R. Kobayashi, R. Kutteh, Z. Lin, R. Littlefield, X. Long, B. Meng,
      T. Nakajima, S. Niu, L. Pollack, M. Rosing, K. Glaesemann, G. Sandrone,
      M. Stave, H. Taylor, G. Thomas, J. H. van Lenthe, A. T. Wong, Z. Zhang.

 Total times  cpu:        8.2s     wall:       63.8s
