 argument  1 = nh3Pol.nw



============================== echo of input deck ==============================
echo
start nh3
title "nh3 in def2-svp basis"

geometry units angstrom
symmetry c1
N     0.21972488     0.07245976     0.00000000
H    -0.05749283     0.62873057    -0.81207827
H    -0.05749283     0.62873057     0.81207827
H    -0.41056568    -0.73286967     0.00000000
end

basis spherical
 * library "def2-svp"
end

dft
 xc b3lyp
end

property
 response 1 0.11318
 damping 0.001
end

task dft property
================================================================================


                                         
                                         


              Northwest Computational Chemistry Package (NWChem) 6.8
              ------------------------------------------------------


                    Environmental Molecular Sciences Laboratory
                       Pacific Northwest National Laboratory
                                Richland, WA 99352

                              Copyright (c) 1994-2018
                       Pacific Northwest National Laboratory
                            Battelle Memorial Institute

             NWChem is an open-source computational chemistry package
                        distributed under the terms of the
                      Educational Community License (ECL) 2.0
             A copy of the license is included with this distribution
                              in the LICENSE.TXT file

                                  ACKNOWLEDGMENT
                                  --------------

            This software and its documentation were developed at the
            EMSL at Pacific Northwest National Laboratory, a multiprogram
            national laboratory, operated for the U.S. Department of Energy
            by Battelle under Contract Number DE-AC05-76RL01830. Support
            for this work was provided by the Department of Energy Office
            of Biological and Environmental Research, Office of Basic
            Energy Sciences, and the Office of Advanced Scientific Computing.


           Job information
           ---------------

    hostname        = neon.science.psu.edu
    program         = /amphome/jbb5516/Programs/nwchem/nwchem-myfork/bin/LINUX64/nwchem
    date            = Fri Feb 26 21:35:06 2021

    compiled        = Wed_Jan_08_20:19:03_2020
    source          = /amphome/jbb5516/Programs/nwchem/nwchem-myfork
    nwchem branch   = Development
    nwchem revision = nwchem_on_git-895-ge64326a1b
    ga revision     = 5.7.0
    use scalapack   = F
    input           = nh3Pol.nw
    prefix          = nh3.
    data base       = ./nh3.db
    status          = startup
    nproc           =        1
    time left       =     -1s



           Memory information
           ------------------

    heap     =   13107200 doubles =    100.0 Mbytes
    stack    =   13107197 doubles =    100.0 Mbytes
    global   =   26214400 doubles =    200.0 Mbytes (distinct from heap & stack)
    total    =   52428797 doubles =    400.0 Mbytes
    verify   = yes
    hardfail = no 


           Directory information
           ---------------------

  0 permanent = .
  0 scratch   = .




                                NWChem Input Module
                                -------------------


                               nh3 in def2-svp basis
                               ---------------------

 Scaling coordinates for geometry "geometry" by  1.889725989
 (inverse scale =  0.529177249)

 Turning off AUTOSYM since
 SYMMETRY directive was detected!


          ------
          auto-z
          ------
  Looking for out-of-plane bends
  no constraints, skipping    0.0000000000000000     
  no constraints, skipping    0.0000000000000000     


                             Geometry "geometry" -> ""
                             -------------------------

 Output coordinates in angstroms (scale by  1.889725989 to convert to a.u.)

  No.       Tag          Charge          X              Y              Z
 ---- ---------------- ---------- -------------- -------------- --------------
    1 N                    7.0000     0.11847260    -0.03072122     0.00000000
    2 H                    1.0000    -0.15874511     0.52554959    -0.81207827
    3 H                    1.0000    -0.15874511     0.52554959     0.81207827
    4 H                    1.0000    -0.51181796    -0.83605065     0.00000000

      Atomic Mass 
      ----------- 

      N                 14.003070
      H                  1.007825


 Effective nuclear repulsion energy (a.u.)      11.8441944750

            Nuclear Dipole moment (a.u.) 
            ----------------------------
        X                 Y               Z
 ---------------- ---------------- ----------------
     0.0000000000     0.0000000000     0.0000000000



                                Z-matrix (autoz)
                                -------- 

 Units are Angstrom for bonds and degrees for angles

      Type          Name      I     J     K     L     M      Value
      ----------- --------  ----- ----- ----- ----- ----- ----------
    1 Stretch                  1     2                       1.02262
    2 Stretch                  1     3                       1.02262
    3 Stretch                  1     4                       1.02265
    4 Bend                     2     1     3               105.14311
    5 Bend                     2     1     4               105.14657
    6 Bend                     3     1     4               105.14657


            XYZ format geometry
            -------------------
     4
 geometry
 N                     0.11847260    -0.03072122     0.00000000
 H                    -0.15874511     0.52554959    -0.81207827
 H                    -0.15874511     0.52554959     0.81207827
 H                    -0.51181796    -0.83605065     0.00000000

 ==============================================================================
                                internuclear distances
 ------------------------------------------------------------------------------
       center one      |      center two      | atomic units |  angstroms
 ------------------------------------------------------------------------------
    2 H                |   1 N                |     1.93248  |     1.02262
    3 H                |   1 N                |     1.93248  |     1.02262
    4 H                |   1 N                |     1.93254  |     1.02265
 ------------------------------------------------------------------------------
                         number of included internuclear distances:          3
 ==============================================================================



 ==============================================================================
                                 internuclear angles
 ------------------------------------------------------------------------------
        center 1       |       center 2       |       center 3       |  degrees
 ------------------------------------------------------------------------------
    2 H                |   1 N                |   3 H                |   105.14
    2 H                |   1 N                |   4 H                |   105.15
    3 H                |   1 N                |   4 H                |   105.15
 ------------------------------------------------------------------------------
                            number of included internuclear angles:          3
 ==============================================================================





 Summary of "ao basis" -> "" (spherical)
 ------------------------------------------------------------------------------
       Tag                 Description            Shells   Functions and Types
 ---------------- ------------------------------  ------  ---------------------
 *                          def2-svp                  on all atoms 


                              NWChem Property Module
                              ----------------------


                               nh3 in def2-svp basis


                                 NWChem DFT Module
                                 -----------------


                               nh3 in def2-svp basis


                      Basis "ao basis" -> "ao basis" (spherical)
                      -----
  N (Nitrogen)
  ------------
            Exponent  Coefficients 
       -------------- ---------------------------------------------------------
  1 S  1.71284159E+03 -0.005393
  1 S  2.57648127E+02 -0.040222
  1 S  5.84582459E+01 -0.179311
  1 S  1.61983679E+01 -0.463763
  1 S  5.00526008E+00 -0.441714

  2 S  5.87318566E-01  1.000000

  3 S  1.87645923E-01  1.000000

  4 P  1.35714702E+01 -0.040072
  4 P  2.92573729E+00 -0.218070
  4 P  7.99277508E-01 -0.512945

  5 P  2.19543480E-01  1.000000

  6 D  1.00000000E+00  1.000000

  H (Hydrogen)
  ------------
            Exponent  Coefficients 
       -------------- ---------------------------------------------------------
  1 S  1.30107010E+01  0.019682
  1 S  1.96225720E+00  0.137965
  1 S  4.44537960E-01  0.478319

  2 S  1.21949620E-01  1.000000

  3 P  8.00000000E-01  1.000000



 Summary of "ao basis" -> "ao basis" (spherical)
 ------------------------------------------------------------------------------
       Tag                 Description            Shells   Functions and Types
 ---------------- ------------------------------  ------  ---------------------
 N                          def2-svp                 6       14   3s2p1d
 H                          def2-svp                 3        5   2s1p




 Summary of "ao basis" -> "ao basis" (spherical)
 ------------------------------------------------------------------------------
       Tag                 Description            Shells   Functions and Types
 ---------------- ------------------------------  ------  ---------------------
 N                          def2-svp                 6       14   3s2p1d
 H                          def2-svp                 3        5   2s1p


  Caching 1-el integrals 

            General Information
            -------------------
          SCF calculation type: DFT
          Wavefunction type:  closed shell.
          No. of atoms     :     4
          No. of electrons :    10
           Alpha electrons :     5
            Beta electrons :     5
          Charge           :     0
          Spin multiplicity:     1
          Use of symmetry is: off; symmetry adaption is: off
          Maximum number of iterations:  30
          AO basis - number of functions:    29
                     number of shells:    15
          Convergence on energy requested:  1.00D-06
          Convergence on density requested:  1.00D-05
          Convergence on gradient requested:  5.00D-04

              XC Information
              --------------
                         B3LYP Method XC Potential
                     Hartree-Fock (Exact) Exchange  0.200          
                        Slater Exchange Functional  0.800 local    
                    Becke 1988 Exchange Functional  0.720 non-local
              Lee-Yang-Parr Correlation Functional  0.810          
                  VWN I RPA Correlation Functional  0.190 local    

             Grid Information
             ----------------
          Grid used for XC integration:  medium    
          Radial quadrature: Mura-Knowles        
          Angular quadrature: Lebedev. 
          Tag              B.-S. Rad. Rad. Pts. Rad. Cut. Ang. Pts.
          ---              ---------- --------- --------- ---------
          N                   0.65       49           6.0       434
          H                   0.35       45           7.0       434
          Grid pruning is: on 
          Number of quadrature shells:   184
          Spatial weights used:  Erf1

          Convergence Information
          -----------------------
          Convergence aids based upon iterative change in 
          total energy or number of iterations. 
          Levelshifting, if invoked, occurs when the 
          HOMO/LUMO gap drops below (HL_TOL):  1.00D-02
          DIIS, if invoked, will attempt to extrapolate 
          using up to (NFOCK): 10 stored Fock matrices.

                    Damping( 0%)  Levelshifting(0.5)       DIIS
                  --------------- ------------------- ---------------
          dE  on:    start            ASAP                start   
          dE off:    2 iters         30 iters            30 iters 


      Screening Tolerance Information
      -------------------------------
          Density screening/tol_rho:  1.00D-10
          AO Gaussian exp screening on grid/accAOfunc:  14
          CD Gaussian exp screening on grid/accCDfunc:  20
          XC Gaussian exp screening on grid/accXCfunc:  20
          Schwarz screening/accCoul:  1.00D-08


      Superposition of Atomic Density Guess
      -------------------------------------

 Sum of atomic energies:         -55.74201861

      Non-variational initial energy
      ------------------------------

 Total energy =     -56.139971
 1-e energy   =     -97.982221
 2-e energy   =      29.998055
 HOMO         =      -0.378744
 LUMO         =       0.093778

   Time after variat. SCF:      1.7
   Time prior to 1st pass:      1.7

 Integral file          = ./nh3.aoints.0
 Record size in doubles =    65536    No. of integs per rec  =    43688
 Max. records in memory =        5    Max. records in file   =  2799197
 No. of bits per label  =        8    No. of bits per value  =       64


 #quartets = 7.260D+03 #integrals = 9.155D+04 #direct =  0.0% #cached =100.0%


 Grid_pts file          = ./nh3.gridpts.0
 Record size in doubles =  12289        No. of grid_pts per rec  =   3070
 Max. records in memory =     30        Max. recs in file   =  14927840


           Memory utilization after 1st SCF pass: 
           Heap Space remaining (MW):       12.41            12409080
          Stack Space remaining (MW):       13.11            13106876

   convergence    iter        energy       DeltaE   RMS-Dens  Diis-err    time
 ---------------- ----- ----------------- --------- --------- ---------  ------
 d= 0,ls=0.0,diis     1    -56.4855994910 -6.83D+01  1.74D-02  2.01D-01     4.9
 d= 0,ls=0.0,diis     2    -56.4906414012 -5.04D-03  9.11D-03  1.76D-01     5.0
 d= 0,ls=0.0,diis     3    -56.5084075544 -1.78D-02  2.06D-03  9.79D-03     5.2
 d= 0,ls=0.0,diis     4    -56.5094670065 -1.06D-03  1.91D-04  7.85D-05     5.3
 d= 0,ls=0.0,diis     5    -56.5094753863 -8.38D-06  1.60D-05  1.62D-07     5.4
 d= 0,ls=0.0,diis     6    -56.5094754100 -2.37D-08  2.63D-06  1.15D-09     5.5


         Total DFT energy =      -56.509475409967
      One electron energy =      -99.473170376535
           Coulomb energy =       39.146436205117
    Exchange-Corr. energy =       -8.026935713592
 Nuclear repulsion energy =       11.844194475042

 Numeric. integr. density =       10.000000473656

     Total iterative time =      3.9s



                       DFT Final Molecular Orbital Analysis
                       ------------------------------------

 Vector    1  Occ=2.000000D+00  E=-1.430069D+01
              MO Center=  1.2D-01, -3.1D-02,  3.7D-13, r^2= 2.0D-02
   Bfn.  Coefficient  Atom+Function         Bfn.  Coefficient  Atom+Function  
  ----- ------------  ---------------      ----- ------------  ---------------
     1      0.988392  1 N  s                  2     -0.044204  1 N  s          

 Vector    2  Occ=2.000000D+00  E=-8.327080D-01
              MO Center= -9.4D-02,  2.4D-02,  7.4D-10, r^2= 7.0D-01
   Bfn.  Coefficient  Atom+Function         Bfn.  Coefficient  Atom+Function  
  ----- ------------  ---------------      ----- ------------  ---------------
     2      0.518667  1 N  s                  1      0.259715  1 N  s          
    15      0.195671  2 H  s                 20      0.195671  3 H  s          
    25      0.195653  4 H  s                  3      0.166772  1 N  s          
     4      0.105441  1 N  px                 5     -0.027351  1 N  py         
    16      0.025955  2 H  s                 21      0.025955  3 H  s          

 Vector    3  Occ=2.000000D+00  E=-4.482071D-01
              MO Center= -1.2D-01, -1.8D-01,  9.5D-06, r^2= 9.8D-01
   Bfn.  Coefficient  Atom+Function         Bfn.  Coefficient  Atom+Function  
  ----- ------------  ---------------      ----- ------------  ---------------
     5      0.451388  1 N  py                25      0.375173  4 H  s          
    15     -0.187580  2 H  s                 20     -0.187595  3 H  s          
     8     -0.183989  1 N  py                26      0.156759  4 H  s          
     4      0.117042  1 N  px                16     -0.078375  2 H  s          
    21     -0.078381  3 H  s                  7     -0.047710  1 N  px         

 Vector    4  Occ=2.000000D+00  E=-4.482036D-01
              MO Center= -1.5D-02,  2.1D-01, -9.5D-06, r^2= 9.8D-01
   Bfn.  Coefficient  Atom+Function         Bfn.  Coefficient  Atom+Function  
  ----- ------------  ---------------      ----- ------------  ---------------
     6      0.466321  1 N  pz                15      0.324914  2 H  s          
    20     -0.324905  3 H  s                  9     -0.190078  1 N  pz         
    16      0.135760  2 H  s                 21     -0.135756  3 H  s          

 Vector    5  Occ=2.000000D+00  E=-2.539520D-01
              MO Center=  2.8D-01, -7.3D-02,  2.7D-10, r^2= 8.1D-01
   Bfn.  Coefficient  Atom+Function         Bfn.  Coefficient  Atom+Function  
  ----- ------------  ---------------      ----- ------------  ---------------
     4      0.527686  1 N  px                 7     -0.421422  1 N  px         
     3     -0.329990  1 N  s                  2     -0.204658  1 N  s          
     5     -0.136827  1 N  py                 8      0.109272  1 N  py         
     1     -0.099702  1 N  s                 15      0.090252  2 H  s          
    20      0.090252  3 H  s                 25      0.090258  4 H  s          

 Vector    6  Occ=0.000000D+00  E= 5.217745D-02
              MO Center= -4.6D-01,  1.2D-01,  2.1D-09, r^2= 3.6D+00
   Bfn.  Coefficient  Atom+Function         Bfn.  Coefficient  Atom+Function  
  ----- ------------  ---------------      ----- ------------  ---------------
     3      1.499034  1 N  s                 16     -0.784395  2 H  s          
    21     -0.784395  3 H  s                 26     -0.784441  4 H  s          
     7     -0.344144  1 N  px                 2      0.195484  1 N  s          
     4      0.178554  1 N  px                 1      0.123966  1 N  s          
     8      0.089215  1 N  py                15     -0.073623  2 H  s          

 Vector    7  Occ=0.000000D+00  E= 1.379952D-01
              MO Center= -5.0D-01, -4.5D-01,  2.4D-05, r^2= 3.4D+00
   Bfn.  Coefficient  Atom+Function         Bfn.  Coefficient  Atom+Function  
  ----- ------------  ---------------      ----- ------------  ---------------
    26      1.608808  4 H  s                 16     -0.804431  2 H  s          
    21     -0.804491  3 H  s                  8      0.765122  1 N  py         
     5     -0.365454  1 N  py                 7      0.198388  1 N  px         
    25      0.099168  4 H  s                  4     -0.094762  1 N  px         
    15     -0.049573  2 H  s                 20     -0.049576  3 H  s          

 Vector    8  Occ=0.000000D+00  E= 1.380003D-01
              MO Center= -2.2D-01,  6.4D-01, -2.4D-05, r^2= 3.4D+00
   Bfn.  Coefficient  Atom+Function         Bfn.  Coefficient  Atom+Function  
  ----- ------------  ---------------      ----- ------------  ---------------
    16      1.393377  2 H  s                 21     -1.393342  3 H  s          
     9      0.790422  1 N  pz                 6     -0.377535  1 N  pz         
    15      0.085876  2 H  s                 20     -0.085874  3 H  s          

 Vector    9  Occ=0.000000D+00  E= 5.174495D-01
              MO Center= -2.4D-02,  1.6D-01,  2.9D-05, r^2= 2.0D+00
   Bfn.  Coefficient  Atom+Function         Bfn.  Coefficient  Atom+Function  
  ----- ------------  ---------------      ----- ------------  ---------------
    15      0.929865  2 H  s                 20     -0.929971  3 H  s          
    16     -0.631572  2 H  s                 21      0.631644  3 H  s          
     9      0.594350  1 N  pz                 6     -0.147639  1 N  pz         
    11     -0.106144  1 N  d -1              29      0.092301  4 H  pz         
    18      0.072882  2 H  py                23     -0.072872  3 H  py         

 Vector   10  Occ=0.000000D+00  E= 5.174560D-01
              MO Center= -9.9D-02, -1.3D-01, -2.9D-05, r^2= 2.0D+00
   Bfn.  Coefficient  Atom+Function         Bfn.  Coefficient  Atom+Function  
  ----- ------------  ---------------      ----- ------------  ---------------
    25      1.073865  4 H  s                 26     -0.729429  4 H  s          
     8      0.575281  1 N  py                15     -0.536903  2 H  s          
    20     -0.536720  3 H  s                 16      0.364654  2 H  s          
    21      0.364529  3 H  s                  7      0.149152  1 N  px         
     5     -0.142933  1 N  py                12     -0.080366  1 N  d  0       

 Vector   11  Occ=0.000000D+00  E= 6.488691D-01
              MO Center= -3.2D-01,  8.4D-02,  2.8D-09, r^2= 2.1D+00
   Bfn.  Coefficient  Atom+Function         Bfn.  Coefficient  Atom+Function  
  ----- ------------  ---------------      ----- ------------  ---------------
     3      1.265236  1 N  s                  2     -0.830430  1 N  s          
    16     -0.614720  2 H  s                 21     -0.614720  3 H  s          
    26     -0.614669  4 H  s                 15      0.580963  2 H  s          
    20      0.580963  3 H  s                 25      0.580771  4 H  s          
     4     -0.369703  1 N  px                 7     -0.273573  1 N  px         

 Vector   12  Occ=0.000000D+00  E= 7.423417D-01
              MO Center=  4.8D-01, -1.3D-01,  4.2D-10, r^2= 1.3D+00
   Bfn.  Coefficient  Atom+Function         Bfn.  Coefficient  Atom+Function  
  ----- ------------  ---------------      ----- ------------  ---------------
     7      0.949245  1 N  px                 4      0.829648  1 N  px         
     2     -0.811198  1 N  s                  3      0.731208  1 N  s          
     8     -0.246178  1 N  py                 5     -0.215138  1 N  py         
    15      0.162890  2 H  s                 20      0.162890  3 H  s          
    25      0.162873  4 H  s                  1     -0.161097  1 N  s          

 Vector   13  Occ=0.000000D+00  E= 8.378191D-01
              MO Center=  3.7D-02, -8.7D-02,  2.4D-05, r^2= 2.1D+00
   Bfn.  Coefficient  Atom+Function         Bfn.  Coefficient  Atom+Function  
  ----- ------------  ---------------      ----- ------------  ---------------
     8      1.683059  1 N  py                26      1.246244  4 H  s          
     5      0.863617  1 N  py                16     -0.622982  2 H  s          
    21     -0.623336  3 H  s                  7      0.436417  1 N  px         
     4      0.223951  1 N  px                28      0.181935  4 H  py         
    27      0.151848  4 H  px                19     -0.094812  2 H  pz         

 Vector   14  Occ=0.000000D+00  E= 8.378245D-01
              MO Center=  7.5D-02,  5.8D-02, -2.5D-05, r^2= 2.1D+00
   Bfn.  Coefficient  Atom+Function         Bfn.  Coefficient  Atom+Function  
  ----- ------------  ---------------      ----- ------------  ---------------
     9      1.738679  1 N  pz                16      1.079452  2 H  s          
    21     -1.079248  3 H  s                  6      0.892187  1 N  pz         
    19      0.159485  2 H  pz                24      0.159454  3 H  pz         
    18     -0.113841  2 H  py                23      0.113821  3 H  py         
    17      0.061152  2 H  px                22     -0.061140  3 H  px         

 Vector   15  Occ=0.000000D+00  E= 9.300085D-01
              MO Center= -3.6D-01,  9.4D-02, -1.6D-09, r^2= 1.7D+00
   Bfn.  Coefficient  Atom+Function         Bfn.  Coefficient  Atom+Function  
  ----- ------------  ---------------      ----- ------------  ---------------
     3      3.657256  1 N  s                  2     -1.515038  1 N  s          
     7     -0.877536  1 N  px                15     -0.657601  2 H  s          
    20     -0.657601  3 H  s                 25     -0.657537  4 H  s          
    16     -0.563861  2 H  s                 21     -0.563861  3 H  s          
    26     -0.563821  4 H  s                  4     -0.229966  1 N  px         

 Vector   16  Occ=0.000000D+00  E= 1.199395D+00
              MO Center= -1.8D-01, -3.6D-02, -2.3D-06, r^2= 1.2D+00
   Bfn.  Coefficient  Atom+Function         Bfn.  Coefficient  Atom+Function  
  ----- ------------  ---------------      ----- ------------  ---------------
    27      0.392027  4 H  px                18      0.358344  2 H  py         
    23      0.358349  3 H  py                 8     -0.320564  1 N  py         
    28     -0.318074  4 H  py                19      0.300334  2 H  pz         
    24     -0.300333  3 H  pz                14     -0.162759  1 N  d  2       
    25     -0.162498  4 H  s                 17     -0.144367  2 H  px         

 Vector   17  Occ=0.000000D+00  E= 1.199422D+00
              MO Center= -1.4D-01,  1.2D-01,  2.3D-06, r^2= 1.2D+00
   Bfn.  Coefficient  Atom+Function         Bfn.  Coefficient  Atom+Function  
  ----- ------------  ---------------      ----- ------------  ---------------
    29      0.484032  4 H  pz                17      0.460447  2 H  px         
    22     -0.460451  3 H  px                 9     -0.331180  1 N  pz         
    13      0.229014  1 N  d  1              18      0.190846  2 H  py         
    23     -0.190835  3 H  py                15     -0.140722  2 H  s          
    20      0.140724  3 H  s                 11     -0.099421  1 N  d -1       

 Vector   18  Occ=0.000000D+00  E= 1.610823D+00
              MO Center= -2.8D-01,  7.2D-02,  3.3D-09, r^2= 1.4D+00
   Bfn.  Coefficient  Atom+Function         Bfn.  Coefficient  Atom+Function  
  ----- ------------  ---------------      ----- ------------  ---------------
    29      0.612092  4 H  pz                18     -0.513038  2 H  py         
    23      0.513038  3 H  py                19     -0.305974  2 H  pz         
    24     -0.305974  3 H  pz                17     -0.133091  2 H  px         
    22      0.133091  3 H  px         

 Vector   19  Occ=0.000000D+00  E= 1.671003D+00
              MO Center= -1.6D-01,  4.1D-02,  7.9D-09, r^2= 1.4D+00
   Bfn.  Coefficient  Atom+Function         Bfn.  Coefficient  Atom+Function  
  ----- ------------  ---------------      ----- ------------  ---------------
     3      1.762655  1 N  s                  7     -0.990160  1 N  px         
     2     -0.848727  1 N  s                 17      0.524499  2 H  px         
    22      0.524499  3 H  px                15     -0.513736  2 H  s          
    20     -0.513736  3 H  s                 25     -0.513732  4 H  s          
    27      0.501599  4 H  px                 8      0.256758  1 N  py         

 Vector   20  Occ=0.000000D+00  E= 1.806467D+00
              MO Center= -2.0D-01,  4.1D-03, -3.0D-06, r^2= 1.5D+00
   Bfn.  Coefficient  Atom+Function         Bfn.  Coefficient  Atom+Function  
  ----- ------------  ---------------      ----- ------------  ---------------
     8      0.914918  1 N  py                27      0.496350  4 H  px         
    18     -0.472783  2 H  py                23     -0.472800  3 H  py         
    28     -0.454536  4 H  py                17     -0.429701  2 H  px         
    22     -0.429671  3 H  px                25      0.410945  4 H  s          
     7      0.237193  1 N  px                15     -0.205536  2 H  s          

 Vector   21  Occ=0.000000D+00  E= 1.806494D+00
              MO Center= -1.8D-01,  9.5D-02,  3.0D-06, r^2= 1.5D+00
   Bfn.  Coefficient  Atom+Function         Bfn.  Coefficient  Atom+Function  
  ----- ------------  ---------------      ----- ------------  ---------------
     9      0.945131  1 N  pz                29     -0.648849  4 H  pz         
    17      0.462128  2 H  px                22     -0.462156  3 H  px         
    19     -0.398783  2 H  pz                24     -0.398773  3 H  pz         
    15      0.355891  2 H  s                 20     -0.355905  3 H  s          
    18     -0.269137  2 H  py                23      0.269106  3 H  py         

 Vector   22  Occ=0.000000D+00  E= 2.085495D+00
              MO Center= -2.5D-01, -2.8D-01,  2.5D-05, r^2= 1.2D+00
   Bfn.  Coefficient  Atom+Function         Bfn.  Coefficient  Atom+Function  
  ----- ------------  ---------------      ----- ------------  ---------------
     5      0.683215  1 N  py                28     -0.652147  4 H  py         
    27     -0.607960  4 H  px                19      0.375802  2 H  pz         
    24     -0.375844  3 H  pz                26     -0.376845  4 H  s          
    10     -0.231026  1 N  d -2              16      0.188359  2 H  s          
    21      0.188383  3 H  s                 12      0.183414  1 N  d  0       

 Vector   23  Occ=0.000000D+00  E= 2.085524D+00
              MO Center= -8.3D-02,  3.7D-01, -2.5D-05, r^2= 1.2D+00
   Bfn.  Coefficient  Atom+Function         Bfn.  Coefficient  Atom+Function  
  ----- ------------  ---------------      ----- ------------  ---------------
     6      0.705813  1 N  pz                19     -0.566885  2 H  pz         
    24     -0.566857  3 H  pz                18      0.456163  2 H  py         
    23     -0.456149  3 H  py                16     -0.326326  2 H  s          
    21      0.326312  3 H  s                 17     -0.261766  2 H  px         
    22      0.261753  3 H  px                11      0.256579  1 N  d -1       

 Vector   24  Occ=0.000000D+00  E= 2.457771D+00
              MO Center= -2.1D-01,  5.3D-02, -9.9D-09, r^2= 1.3D+00
   Bfn.  Coefficient  Atom+Function         Bfn.  Coefficient  Atom+Function  
  ----- ------------  ---------------      ----- ------------  ---------------
     3      1.572885  1 N  s                  7     -0.790025  1 N  px         
    28     -0.786614  4 H  py                 2      0.748399  1 N  s          
    19     -0.677899  2 H  pz                24      0.677899  3 H  pz         
    15     -0.652317  2 H  s                 20     -0.652317  3 H  s          
    25     -0.652307  4 H  s                  4      0.457957  1 N  px         

 Vector   25  Occ=0.000000D+00  E= 2.801934D+00
              MO Center=  2.6D-02, -5.7D-02,  8.7D-07, r^2= 8.4D-01
   Bfn.  Coefficient  Atom+Function         Bfn.  Coefficient  Atom+Function  
  ----- ------------  ---------------      ----- ------------  ---------------
    13      0.954200  1 N  d  1              29     -0.551881  4 H  pz         
    11     -0.545300  1 N  d -1               9      0.391277  1 N  pz         
    17     -0.302251  2 H  px                22      0.302250  3 H  px         
    18     -0.220952  2 H  py                23      0.220959  3 H  py         
    15      0.114213  2 H  s                 20     -0.114211  3 H  s          

 Vector   26  Occ=0.000000D+00  E= 2.801958D+00
              MO Center=  5.1D-02,  3.7D-02, -8.7D-07, r^2= 8.4D-01
   Bfn.  Coefficient  Atom+Function         Bfn.  Coefficient  Atom+Function  
  ----- ------------  ---------------      ----- ------------  ---------------
    14      0.717513  1 N  d  2              12      0.664679  1 N  d  0       
    10      0.501256  1 N  d -2              18      0.406716  2 H  py         
    23      0.406712  3 H  py                 8     -0.378788  1 N  py         
    19      0.289718  2 H  pz                24     -0.289717  3 H  pz         
    27      0.235477  4 H  px                28     -0.182207  4 H  py         

 Vector   27  Occ=0.000000D+00  E= 2.866939D+00
              MO Center= -4.1D-02,  1.1D-02,  1.5D-09, r^2= 1.0D+00
   Bfn.  Coefficient  Atom+Function         Bfn.  Coefficient  Atom+Function  
  ----- ------------  ---------------      ----- ------------  ---------------
     3      1.320656  1 N  s                 14     -0.758357  1 N  d  2       
     2      0.740368  1 N  s                 15     -0.625087  2 H  s          
    20     -0.625087  3 H  s                 25     -0.624997  4 H  s          
    27     -0.582606  4 H  px                12      0.500730  1 N  d  0       
    10      0.421488  1 N  d -2              19     -0.415833  2 H  pz         

 Vector   28  Occ=0.000000D+00  E= 3.324659D+00
              MO Center=  3.1D-02, -9.4D-02,  4.0D-06, r^2= 9.7D-01
   Bfn.  Coefficient  Atom+Function         Bfn.  Coefficient  Atom+Function  
  ----- ------------  ---------------      ----- ------------  ---------------
    25      1.170639  4 H  s                 10     -1.055363  1 N  d -2       
     8      0.966239  1 N  py                12      0.871396  1 N  d  0       
    28      0.803910  4 H  py                 5     -0.678255  1 N  py         
    27      0.626434  4 H  px                15     -0.585398  2 H  s          
    20     -0.585448  3 H  s                 19     -0.419355  2 H  pz         

 Vector   29  Occ=0.000000D+00  E= 3.324710D+00
              MO Center=  7.3D-02,  6.7D-02, -4.0D-06, r^2= 9.7D-01
   Bfn.  Coefficient  Atom+Function         Bfn.  Coefficient  Atom+Function  
  ----- ------------  ---------------      ----- ------------  ---------------
    11      1.206919  1 N  d -1              15      1.013944  2 H  s          
    20     -1.013915  3 H  s                  9      0.998169  1 N  pz         
     6     -0.700732  1 N  pz                19      0.693348  2 H  pz         
    24      0.693327  3 H  pz                13      0.645506  1 N  d  1       
    18     -0.493930  2 H  py                23      0.493917  3 H  py         


 center of mass
 --------------
 x =   0.09136260 y =  -0.02369131 z =   0.00000000

 moments of inertia (a.u.)
 ------------------
           9.288268124796          -0.794368459290           0.000000000000
          -0.794368459290           6.430808560047           0.000000000000
           0.000000000000           0.000000000000           6.225309676862

     Multipole analysis of the density
     ---------------------------------

     L   x y z        total         alpha         beta         nuclear
     -   - - -        -----         -----         ----         -------
     0   0 0 0     -0.000000     -5.000000     -5.000000     10.000000

     1   1 0 0     -0.668757     -0.334379     -0.334379      0.000000
     1   0 1 0      0.173421      0.086710      0.086710      0.000000
     1   0 0 1      0.000000      0.000000      0.000000      0.000000

     2   2 0 0     -6.263543     -3.864925     -3.864925      1.466307
     2   1 1 0      0.421778     -0.209731     -0.209731      0.841241
     2   1 0 1      0.000000      0.000000      0.000000      0.000000
     2   0 2 0     -4.746310     -4.619340     -4.619340      4.492370
     2   0 1 1     -0.000000     -0.000000     -0.000000      0.000000
     2   0 0 2     -4.637102     -4.673565     -4.673565      4.710028


 Parallel integral file used       3 records with       0 large values

 *** CALLING NEW AORESP DRIVER FOR CLOSED AND OPEN SHELLS ***
 Entering AOResponse driver routine


--------------------------------------------------------------------------------

          ****************
          *** RESPONSE ***
          ****************

 Response module for NWChem and dynamic CPKS solver
 developed by J. Autschbach and coworkers, SUNY Buffalo
 The methodology used in this program is described in 
 ChemPhysChem 12 (2011), 3224-3235 (main reference)
 J. Chem. Phys. 123 (2005), 114103
 J. Chem. Phys. 122 (2005), 224115
 J. Chem. Phys. 122 (2005), 074105
 Comp. Lett. 3 (2007), 131-150 (contact JA for a copy)
 Please cite this work in publications based on results
 obtained with this code. Thank you!

 For extension of response module to open shell
 calculations please acknowledge:
 F. Aquino, Northwestern University, Schatz Rsrch Group
 The update to the methodology is described in
 J. Phys. Chem. A 118 (2014) 517-525



          -----------------------------------------------
          Solving response equations for perturbing field
          -----------------------------------------------

 number of frequencies:     1
 frequency in a.u.:  0.1131800E+00
 Perturbing field: electric
 Using El. Dipole Length Gauge

 Applying DAMPING constant of  0.001000 a.u.

 Setting up CPKS
 with frequency omega =      0.11318000 a.u.
 and a damping of            0.00100000 a.u.


                            NWChem Dynamic CPHF Module
                            --------------------------


    scftype = RHF 
    nclosed =    5
      nopen =    0
  variables =      480
  num. vecs =        3
  tolerance =   1.0D-04
  max. iter =   50


 Integral file          = ./nh3.aoints.0
 Record size in doubles =    65536    No. of integs per rec  =    43688
 Max. records in memory =        5    Max. records in file   =  2799197
 No. of bits per label  =        8    No. of bits per value  =       64


 #quartets = 7.260D+03 #integrals = 9.155D+04 #direct =  0.0% #cached =100.0%

 SCF residual:    6.2623956398406797E-006


Iterative solution of linear equations
  No. of variables      240
  No. of equations        3
  Maximum subspace       30
       Convergence  1.0D-04
        Start time      7.6


   iter   nsub   residual    time 
   ----  ------  --------  --------- 
 dft_CPHF2_read: failed to open./nh3.aoresp_fiao_f1
     1      3    1.44D+00       8.6
     2      6    1.47D+00       9.7
     3      9    1.69D-01      10.7
     4     12    2.40D-02      11.7
     5     15    1.19D-03      12.8
     6     18    7.03D-05      13.8

 Parallel integral file used       3 records with       0 large values


 Electric Dipole Response Matrix (nonzero elements):

              1        2        3      
    1    7.3569   0.7271  -0.0000
    2    0.7271   9.9719   0.0000
    3   -0.0000   0.0000  10.1597

 Imaginary part:

              1        2        3      
    1    0.0106  -0.0006  -0.0000
    2   -0.0006   0.0083  -0.0000
    3   -0.0000   0.0000   0.0082

 ------------------------------------------
 average:         9.16284 + I       0.00901


 DFT Linear Response polarizability / au 
 Frequency  =       0.1131800 / au
 Wavelength =     402.5742446 / nm
              X              Y              Z
 -----------------------------------------------
 X       7.3569226      0.7270514     -0.0000000
 Y       0.7270514      9.9718789      0.0000000
 Z      -0.0000000      0.0000000     10.1597129
 -----------------------------------------------
 Eigenvalues =       7.1683717     10.1604298     10.1597129
 Isotropic   =       9.1628381
 Anisotropic =       2.9916997
 -----------------------------------------------
 *************************

 DFT Linear Response IMAG polarizability / au 
 Frequency  =       0.1131800 / au
 Wavelength =     402.5742446 / nm
              X              Y              Z
 -----------------------------------------------
 X       0.0105607     -0.0006237     -0.0000000
 Y      -0.0006237      0.0083153     -0.0000000
 Z      -0.0000000      0.0000000      0.0081528
 -----------------------------------------------
 Eigenvalues =       0.0107223      0.0081538      0.0081528
 Isotropic   =       0.0090096
 Anisotropic =       0.0025690
 -----------------------------------------------
 *************************

 Magnetic Dipole Response Matrix (nonzero elements):
 Optical rotation tensor Beta

              1        2        3      
    1    0.0000   0.0000   0.3558
    2   -0.0000  -0.0000   1.3713
    3   -0.3556  -1.3712   0.0000

 Imaginary part:

              1        2        3      
    1    0.0000   0.0000   0.0038
    2   -0.0000  -0.0000   0.0146
    3   -0.0038  -0.0146   0.0000

 ------------------------------------------
 average:        -0.00000 + I       0.00000

 Exiting AOResponse driver routine

 Task  times  cpu:        7.4s     wall:       12.6s
 Summary of allocated global arrays
-----------------------------------
  No active global arrays



                         GA Statistics for process    0
                         ------------------------------

       create   destroy   get      put      acc     scatter   gather  read&inc
calls:  956      956     2.79e+05 2.28e+05 1.23e+05  699        0      477     
number of processes/call 5.19e+12 -3.53e+13 6.89e+12 0.00e+00 0.00e+00
bytes total:             7.19e+07 1.03e+07 7.00e+07 2.32e+02 0.00e+00 3.82e+03
bytes remote:            0.00e+00 0.00e+00 0.00e+00 0.00e+00 0.00e+00 0.00e+00
Max memory consumed for GA by this process: 1111384 bytes
MA_summarize_allocated_blocks: starting scan ...
MA_summarize_allocated_blocks: scan completed: 0 heap blocks, 0 stack blocks
MA usage statistics:

	allocation statistics:
					      heap	     stack
					      ----	     -----
	current number of blocks	         0	         0
	maximum number of blocks	        25	        53
	current total bytes		         0	         0
	maximum total bytes		   5584920	  22511240
	maximum total K-bytes		      5585	     22512
	maximum total M-bytes		         6	        23


                                NWChem Input Module
                                -------------------





                                     CITATION
                                     --------
                Please cite the following reference when publishing
                           results obtained with NWChem:

                 M. Valiev, E.J. Bylaska, N. Govind, K. Kowalski,
              T.P. Straatsma, H.J.J. van Dam, D. Wang, J. Nieplocha,
                        E. Apra, T.L. Windus, W.A. de Jong
                 "NWChem: a comprehensive and scalable open-source
                  solution for large scale molecular simulations"
                      Comput. Phys. Commun. 181, 1477 (2010)
                           doi:10.1016/j.cpc.2010.04.018

                                      AUTHORS
                                      -------
          E. Apra, E. J. Bylaska, W. A. de Jong, N. Govind, K. Kowalski,
       T. P. Straatsma, M. Valiev, H. J. J. van Dam, D. Wang, T. L. Windus,
        J. Hammond, J. Autschbach, K. Bhaskaran-Nair, J. Brabec, K. Lopata,
    S. A. Fischer, S. Krishnamoorthy, M. Jacquelin, W. Ma, M. Klemm, O. Villa,
      Y. Chen, V. Anisimov, F. Aquino, S. Hirata, M. T. Hackler, V. Konjkov,
            D. Mejia-Rodriguez, T. Risthaus, M. Malagoli, A. Marenich,
   A. Otero-de-la-Roza, J. Mullin, P. Nichols, R. Peverati, J. Pittner, Y. Zhao,
        P.-D. Fan, A. Fonari, M. J. Williamson, R. J. Harrison, J. R. Rehr,
      M. Dupuis, D. Silverstein, D. M. A. Smith, J. Nieplocha, V. Tipparaju,
    M. Krishnan, B. E. Van Kuiken, A. Vazquez-Mayagoitia, L. Jensen, M. Swart,
      Q. Wu, T. Van Voorhis, A. A. Auer, M. Nooijen, L. D. Crosby, E. Brown,
      G. Cisneros, G. I. Fann, H. Fruchtl, J. Garza, K. Hirao, R. A. Kendall,
      J. A. Nichols, K. Tsemekhman, K. Wolinski, J. Anchell, D. E. Bernholdt,
      P. Borowski, T. Clark, D. Clerc, H. Dachsel, M. J. O. Deegan, K. Dyall,
    D. Elwood, E. Glendening, M. Gutowski, A. C. Hess, J. Jaffe, B. G. Johnson,
     J. Ju, R. Kobayashi, R. Kutteh, Z. Lin, R. Littlefield, X. Long, B. Meng,
      T. Nakajima, S. Niu, L. Pollack, M. Rosing, K. Glaesemann, G. Sandrone,
      M. Stave, H. Taylor, G. Thomas, J. H. van Lenthe, A. T. Wong, Z. Zhang.

 Total times  cpu:        7.4s     wall:       15.5s
