
Create H   file=TZP-H
End Input
 input_parser input command:
 sh /amphome/pbl5075/programs/ADF/adfdevel_20171019/bin/input_parser.sh -i temporary_input.in -p adf
Keywords definitions OK.

 *******************************************************************************
 *                                                                             *
 *  -------------------------------------                                      *
 *   Amsterdam Density Functional  (ADF)                                       *
 *  -------------------------------------                                      *
 *                                               r                             *
 *                                                                             *
 *                                                                             *
 *                              =================                              *
 *                              |               |                              *
 *                              |     A D F     |                              *
 *                              |               |                              *
 *                              =================                              *
 *                                                                             *
 *                                                                             *
 *   Online information and documentation:  https://www.scm.com/support/       *
 *   E-mail:  support@scm.com   info@scm.com                                   *
 *                                                                             *
 *   Scientific publications using ADF results must be properly referenced     *
 *   See the User Manuals (or the web site) for recommended citations          *
 *   The terms and conditions of the End User License Agreement apply to       *
 *   the use of ADF, https://www.scm.com/license-terms/                        *
 *                                                                             *
 ************************  x86_64_linux_gnu / openmpi  *************************
 
 Licensed to: Prof. Lasse Jensen / Penn State University / University Park / PA  / USA
 SCM User ID: u8493
  
 ADF  RunTime: Nov07-2017 10:16:52  Nodes: 1  Procs: 1

 Temporary files are created in /scratch/kid_0.x8xIq0

 Hydrogen (TZP)



 ===========================
 A T T A C H E D   F I L E S
 ===========================
  
 CREATE - Data File:    TZP-H
                        Hydrogen (TZP)



 ===============================
 M O D E L   P A R A M E T E R S
 ===============================
  
 DENSITY FUNCTIONAL POTENTIAL (scf)
    LDA:                               VWN                                      
    Gradient Corrections:              ---                                      

 SPIN  (restricted / unrestr.)
    Molecule:                          Restricted                               

 OTHER ASPECTS
    Relativistic Corrections:          ---                                      

    Nuclear Charge Density Model:      Point Charge Nuclei                      
    Core Treatment:                    Frozen Orbital(s)                        

    Hyperfine or Zeeman Interaction:   ---                                      



 =====================================
 S Y M M E T R Y ,   E L E C T R O N S
 =====================================
  
 Symmetry: ATOM

 Irreducible Representations, including subspecies
 -------------------------------------------------
 S
 P:x  P:y  P:z
 D:z2  D:x2-y2  D:xy  D:xz  D:yz
 F:z3  F:z  F:xyz  F:z2x  F:z2y  F:x  F:y


 Configuration of Valence Electrons
 ==================================

          Occupation Numbers
          -------------------------------------------------
 S        1
 P        0
 D        0
 F        0
          -------------------------------------------------

 Total:   1

 Net Charge: 0 (Nuclei minus Electrons)

 Preset values for MO occupations will be applied through SCF cycle no. 1000000
 Thereafter, the program will assign electrons to MOs that are spatially
 similar to the occupied MOs in a "reference" cycle ("KeepOrbitals").
 The reference cycle is always the PREVIOUS cycle: it will evolve with
 the SCF procedure.



 ================================
 (Slater-type)  F U N C T I O N S  ***  (Basis and Fit)  ***
 ================================
  

 Atom Type    1  (H)
 ==============

 Valence Basis Sets:   4
 -----------------------
   1 S    0.690000
   1 S    0.920000
   1 S    1.580000
   2 P    1.250000


 BAS: List of all Elementary Cartesian Basis Functions
 =====================================================

 The numbering in the list below (to the right of the function characteristics) is referred
 to in print-outs of MO eigenvectors and Mulliken populations in the BAS representation
 (as contrasted to the SFO representation).

 Notes:
 1. The functions are characterized by a polynomial prefactor (powers of x,y,z and r) and
    an exponential decay factor alpha.
 2. Since the basis sets are specific for an atom TYPE, the individual functions occur on
    all atoms of that type.
 3. The word 'Core' in the left margin signals that it is a Core Function (CF) : not a
    degree of freedom in the valence set, but only used to ensure orthogonalization of
    the other valence basis functions on the frozen Core Orbitals.


 (power of) X  Y  Z  R     Alpha  on Atom
            ==========     =====     ==========

 H                                    1
                                  ---------------------------------------------------------------------------
            0  0  0  0     0.690      1
            0  0  0  0     0.920      2
            0  0  0  0     1.580      3
            1  0  0  0     1.250      4
            0  1  0  0     1.250      5
            0  0  1  0     1.250      6

 Total number of charge fitting functions (nprimf)        50
 Total number of Cartesian basis functions (naos)          6
 Total number of Cartesian core functions  (ncos)          0



 BAS: List of all Elementary Cartesian Basis Functions
 =====================================================

 The numbering in the list below (to the right of the function characteristics) is referred
 to in print-outs of MO eigenvectors and Mulliken populations in the BAS representation
 (as contrasted to the SFO representation).

 Notes:
 1. The functions are characterized by a polynomial prefactor (powers of x,y,z and r) and
    an exponential decay factor alpha.
 2. Since the basis sets are specific for an atom TYPE, the individual functions occur on
    all atoms of that type.
 3. The word 'Core' in the left margin signals that it is a Core Function (CF) : not a
    degree of freedom in the valence set, but only used to ensure orthogonalization of
    the other valence basis functions on the frozen Core Orbitals.


 (power of) X  Y  Z  R     Alpha  on Atom
            ==========     =====     ==========

 H                                    1
                                  ---------------------------------------------------------------------------
            0  0  0  0     0.690      1
            0  0  0  0     0.920      2
            0  0  0  0     1.580      3
            1  0  0  0     1.250      4
            0  1  0  0     1.250      5
            0  0  1  0     1.250      6
1
 ***************************************************************************************************



                                              ***********************
                                              *  T E C H N I C A L  *
                                              ***********************
  



 =============================================================
 P A R A L L E L I Z A T I O N  and  V E C T O R I Z A T I O N
 =============================================================
  
 Nr of parallel processes:                                1
 Maximum vector length in NumInt loops:                 128

 IO buffersize (Mb):                                     64.000000



 =====================
 S C F   U P D A T E S
 =====================
  
 Max. nr. of cycles:                               300
 Convergence criterion:                              0.0000000100
   secondary criterion:                              0.0000000100

 Mix parameter (when DIIS does not apply):           0.2000000000
 Special mix parameter for the first cycle:          1.0000000000
 Mixed ADIIS+DIIS will be used
    Max number of expansion vectors:                10
    Pure ADIIS when Max([F,P]) is above              0.1000000000
    Pure DIIS when Max([F,P]) is below               0.0010000000
 Automatic ElectronSmearing (in case of problematic SCF convergence) disabled



 =================
 P R E C I S I O N  ***  (General: NumInt, NeglectFunctionTails, ...)  ***
 =================
  

 NumInt:           Target precision:                12.0000000000
 -------           Initial precision:               10.0000000000
                   Min. precision (optimization):   10.0000000000

 Neglect Functions:          Basis functions:        0.1000000000E-13
 ------------------          Fit functions:          0.1000000000E-13



 ===========================
 L I N E A R   S C A L I N G
 ===========================
  

 Cut-off radii density fit:                        0.1000000000E-97
 Overlap cut-off criterion AO matrix elements:     0.1000000000E-97
 Cut-offs for Coulomb potential and fitted density:0.1000000000E-97
 Cut-off criterion for Coulomb multipole terms:    0.1000000000E-97
 Progressive Convergence parameter:                 0.000000000    
1
 ***************************************************************************************************



                                            ***************************
                                            *  C O M P U T A T I O N  *
                                            ***************************
  

 Number of elements of the density matrix on this node (used, total):        21        21



 ===========================================
 Numerical Integration : Fuzzy Cells (Becke)
 ===========================================
  
 Becke grid quality: VERYGOOD       
  
 Lebedev angular grid order:             min:  13 max:  41
 Nr. of radial points:                   min:  64 max:  64

 Total nr. of points:         64
 Nr. of blocks:                1
 Block length:                64
 Nr. of dummy points:          0


 Test of Precision of the Numerical Integration Grid
 ===================================================

 Integral of the Total Core Density:                   0.00000000000000



 ========================
 Density Fitting (zlmFit)
 ========================
  
 ZlmFit Fit Quality: VERYGOOD       
  
 Max L-expansion:                        min:   0 max:   0
 Nr. of radial interpolation points:     min: 120 max: 120



 =====
 S C F  ***  ScaSCF  ***
 =====
  

 CYCLE    1
 SCF Error: norm([F,P])=      0.000000000000, max([F,P])=      0.000000000000
 orbitals (Q,E):
 ---------------
 S :1...3            ( 1.00    -0.5000)  ( 0.00    -0.0900)  ( 0.00     1.2939)
 P :1...1            ( 0.00     0.1562)

 CYCLE    2
 SCF Error: norm([F,P])=      0.045990433993, max([F,P])=      0.045813803447
 orbitals (Q,E):
 ---------------
 S :1...2            ( 1.00    -0.2117)  ( 0.00     0.1099)
 P :1...1            ( 0.00     0.4210)

 CYCLE    3
  SDIIS (wt  0.000):  0.1820  0.8180
 A-DIIS (wt  1.000):  0.0000  1.0000
  DIIS coefficients:  0.0000  1.0000
 SCF Error: norm([F,P])=      0.010426914894, max([F,P])=      0.010016515845
 orbitals (Q,E):
 ---------------
 S :1...2            ( 1.00    -0.2376)  ( 0.00     0.0920)
 P :1...1            ( 0.00     0.3996)

 CYCLE    4
  SDIIS (wt  0.990):  0.1619  0.8381
 A-DIIS (wt  0.010):  0.0000  1.0000
  DIIS coefficients:  0.1603  0.8397
 SCF Error: norm([F,P])=      0.002017834946, max([F,P])=      0.001970660313
 orbitals (Q,E):
 ---------------
 S :1...2            ( 1.00    -0.2334)  ( 0.00     0.0946)
 P :1...1            ( 0.00     0.4031)

 CYCLE    5
  SDIIS (wt  1.000):  0.0126  0.9874
  DIIS coefficients:  0.0126  0.9874
 SCF Error: norm([F,P])=      0.000026597973, max([F,P])=      0.000023707955
 orbitals (Q,E):
 ---------------
 S :1...2            ( 1.00    -0.2335)  ( 0.00     0.0945)
 P :1...1            ( 0.00     0.4030)

 CYCLE    6
  SDIIS (wt  1.000): -0.0474  1.0474
  DIIS coefficients: -0.0474  1.0474
 SCF Error: norm([F,P])=      0.000001203755, max([F,P])=      0.000001094939
 orbitals (Q,E):
 ---------------
 S :1...2            ( 1.00    -0.2335)  ( 0.00     0.0945)
 P :1...1            ( 0.00     0.4030)

 CYCLE    7
  SDIIS (wt  1.000):  0.0099  0.9901
  DIIS coefficients:  0.0099  0.9901
 SCF Error: norm([F,P])=      0.000000012024, max([F,P])=      0.000000011169
 orbitals (Q,E):
 ---------------
 S :1...2            ( 1.00    -0.2335)  ( 0.00     0.0945)
 P :1...1            ( 0.00     0.4030)

 CYCLE    8
  SDIIS (wt  1.000):  0.0106  0.9894
  DIIS coefficients:  0.0106  0.9894
 SCF Error: norm([F,P])=      0.000000000129, max([F,P])=      0.000000000119
 orbitals (Q,E):
 ---------------
 S :1...2            ( 1.00    -0.2335)  ( 0.00     0.0945)
 P :1...1            ( 0.00     0.4030)

 SCF CONVERGED

 CYCLE    9
1
 ***************************************************************************************************



                                                *******************
                                                *  R E S U L T S  *
                                                *******************
  
 *** Setting up for NEW gradients in Focky
 *** Using FIT density in Focky

 Orbital Energies, per Irrep and Spin:
 ======================================
                        Occup              E (au)              E (eV)       Diff (eV) with prev. cycle
                        -----      --------------------        ------       --------------------------
 S
               1        1.000     -0.23346375500398E+00        -6.353              -9.67E-12
               2        0.000      0.94533034417503E-01         2.572
               3        0.000      0.15475827223514E+01        42.112
 P
               1        0.000      0.40302624564863E+00        10.967


 Partially Occupied:
               1 S                -0.23346375500398E+00
  
 LUMO :        2 S                 0.94533034417503E-01
  


 Orbital Energies, all Irreps
 ========================================

 Irrep        no.  (spin)   Occup              E (au)                E (eV)
 ---------------------------------------------------------------------------
 S             1             1.00       -0.23346375500398E+00        -6.3529
 S             2             0.00        0.94533034417503E-01         2.5724
 P             1             0.00        0.40302624564863E+00        10.9669
 S             3             0.00        0.15475827223514E+01        42.1119


 All Electron Calculation, thus no Orbital Energies of the Core Orbitals are calculated



 =======================================
 M U L L I K E N   P O P U L A T I O N S
 =======================================
  
 The survey below gives for each atom:
 a) the total charge (Z minus electrons)
 b) the net spin polarization (nr of electrons spin-A minus spin-B)
 c) for each spin the atomic electron valence density (integrated) per L-value.

 Atom              Charge    Spin density          S         P         D         F
 ----              ------    ------------       ------    ------    ------    ------
 1 H               0.0000                       1.0000    0.0000    0.0000    0.0000

 Populations of individual BAS functions
 ----------------------------------------
 1 H            0.2548  0.6549  0.0903  0.0000  0.0000  0.0000

 Gross Charges per Atom (Z minus electrons)
 ==========================================
             0.0000
 Net Total:  0.00000000



 =======================================================================
 Electrostatic potential at the Nuclei due to electrons and other nuclei
 =======================================================================
  
         Atom                  Potential
         ----                  ---------
     1)   H                   0.92099829


 ========================
 No memory problems found
 ========================

 Maximum number of active allocate calls:         303

 *******************************************************************************

                             A D F   E X I T
 NORMAL TERMINATION



 =================
 Timing Statistics
 =================
  
 Total Used :                     CPU=        1.26      System=        0.06     Elapsed=        2.12

 Calls  Section                     ( Mean, Percentage )
 ---------------------------------------------------------------------------------------------------
     3  ><      ................      0.00    0.32             0.00    0.00             0.00    0.12
     1  INIT    ................      0.05    3.81             0.05   85.71             0.90   42.46
     1  GEOMET  ................      0.01    0.95             0.00    0.00             0.01    0.65
     1  INPUTA  ................      0.00    0.32             0.00    0.00             0.00    0.08
     1  MAINSY  ................      0.00    0.32             0.00    0.00             0.01    0.27
     1  SYMFIT  ................      0.00    0.00             0.00    0.00             0.00    0.02
     1  CORORT  ................      0.00    0.00             0.00    0.00             0.00    0.01
     1  SYMORB  ................      0.00    0.00             0.00    0.00             0.00    0.05
     1  CLSMAT  ................      0.01    0.63             0.00    0.00             0.00    0.21
     1  ORTHON  ................      0.00    0.00             0.00    0.00             0.00    0.07
     1  GENPT   ................      0.01    0.63             0.00    0.00             0.01    0.51
     1  PTBAS   ................      0.00    0.32             0.00    0.00             0.00    0.08
     9  FOCKY   ................      0.12   83.81             0.00    7.14             0.12   50.18
     9  FOCKTR  ................      0.00    0.95             0.00    0.00             0.00    0.26
     9  SDIIS   ................      0.00    0.95             0.00    0.00             0.00    0.69
     1  COREPS  ................      0.06    5.08             0.00    0.00             0.06    2.98
     1  POPAN   ................      0.00    0.00             0.00    0.00             0.00    0.17
     1  DEBYE   ................      0.00    0.00             0.00    0.00             0.00    0.01
     1  EXIT PROCEDURE .........      0.02    1.90             0.00    7.14             0.02    1.17


 Currently Open Files (EXIT00)
 ====================

 Unit    Access Format  Status   Type       Ident (file)
 -------------------------------------------------------
   3      SEQ    FORM   TRANSP  NORMAL      LOGFILE
                                          ( logfile )


 Buffered I/O statistics
 =======================
 Memory available:                     67108864
 Number of records fitting in memory:     16131
 Input :   0.2% of                        15861  *4k bytes
 Output:  11.4% of                         1198  *4k bytes
 Records from serial files evicted:           0
                    others evicted:           0
 Hash table lookups:      39870 with          0 conflicts (  0.00%)

 ***************************************************************************************************
 (LOGFILE)
 <Nov07-2017> <10:16:52>  ADF  RunTime: Nov07-2017 10:16:52  Nodes: 1  Procs: 1
 <Nov07-2017> <10:16:52>  Hydrogen (TZP)
 <Nov07-2017> <10:16:52>  RunType   : CREATE
 <Nov07-2017> <10:16:52>  Net Charge: 0 (Nuclei minus Electrons)
 <Nov07-2017> <10:16:52>  Symmetry  : ATOM
  Coordinates
    Atom         X           Y           Z   (Angstrom)
    1.H         0.000000    0.000000    0.000000
 <Nov07-2017> <10:16:52>  >>>> CORORT
 <Nov07-2017> <10:16:52>  >>>> CLSMAT
 <Nov07-2017> <10:16:52>  >>>> ORTHON
 <Nov07-2017> <10:16:52>  >>>> GENPT
 <Nov07-2017> <10:16:52>  Block Length=  64
 <Nov07-2017> <10:16:52>  >>>> PTBAS
 <Nov07-2017> <10:16:52>  >>>> CYCLE
 <Nov07-2017> <10:16:53>              |Error|         MaxErr       Wt(A-DIIS)
 <Nov07-2017> <10:16:53>      1      0.00000000      0.00000000
 <Nov07-2017> <10:16:53>      2      0.04599043      0.04581380
 <Nov07-2017> <10:16:53>      3      0.01042691      0.01001652    100.0
 <Nov07-2017> <10:16:53>      4      0.00201783      0.00197066      1.0
 <Nov07-2017> <10:16:53>      5      0.00002660      0.00002371      0.0
 <Nov07-2017> <10:16:53>      6      0.00000120      0.00000109      0.0
 <Nov07-2017> <10:16:53>      7      0.00000001      0.00000001      0.0
 <Nov07-2017> <10:16:53>      8      0.00000000      0.00000000      0.0
 <Nov07-2017> <10:16:53>  SCF converged
 <Nov07-2017> <10:16:53>      9      0.00000000      0.00000000      0.0
 <Nov07-2017> <10:16:53>  >>>> POPAN
 <Nov07-2017> <10:16:53>  >>>> DEBYE
 <Nov07-2017> <10:16:53>  NORMAL TERMINATION
 <Nov07-2017> <10:16:53>  END

Create C   file=TZP-C
End Input
 input_parser input command:
 sh /amphome/pbl5075/programs/ADF/adfdevel_20171019/bin/input_parser.sh -i temporary_input.in -p adf
Keywords definitions OK.

 *******************************************************************************
 *                                                                             *
 *  -------------------------------------                                      *
 *   Amsterdam Density Functional  (ADF)                                       *
 *  -------------------------------------                                      *
 *                                               r                             *
 *                                                                             *
 *                                                                             *
 *                              =================                              *
 *                              |               |                              *
 *                              |     A D F     |                              *
 *                              |               |                              *
 *                              =================                              *
 *                                                                             *
 *                                                                             *
 *   Online information and documentation:  https://www.scm.com/support/       *
 *   E-mail:  support@scm.com   info@scm.com                                   *
 *                                                                             *
 *   Scientific publications using ADF results must be properly referenced     *
 *   See the User Manuals (or the web site) for recommended citations          *
 *   The terms and conditions of the End User License Agreement apply to       *
 *   the use of ADF, https://www.scm.com/license-terms/                        *
 *                                                                             *
 ************************  x86_64_linux_gnu / openmpi  *************************
 
 Licensed to: Prof. Lasse Jensen / Penn State University / University Park / PA  / USA
 SCM User ID: u8493
  
 ADF  RunTime: Nov07-2017 10:16:54  Nodes: 1  Procs: 1

 Temporary files are created in /scratch/kid_0.szIcGm

 Carbon (TZP)



 ===========================
 A T T A C H E D   F I L E S
 ===========================
  
 CREATE - Data File:    TZP-C
                        Carbon (TZP)



 ===============================
 M O D E L   P A R A M E T E R S
 ===============================
  
 DENSITY FUNCTIONAL POTENTIAL (scf)
    LDA:                               VWN                                      
    Gradient Corrections:              ---                                      

 SPIN  (restricted / unrestr.)
    Molecule:                          Restricted                               

 OTHER ASPECTS
    Relativistic Corrections:          ---                                      

    Nuclear Charge Density Model:      Point Charge Nuclei                      
    Core Treatment:                    Frozen Orbital(s)                        

    Hyperfine or Zeeman Interaction:   ---                                      



 =====================================
 S Y M M E T R Y ,   E L E C T R O N S
 =====================================
  
 Symmetry: ATOM

 Irreducible Representations, including subspecies
 -------------------------------------------------
 S
 P:x  P:y  P:z
 D:z2  D:x2-y2  D:xy  D:xz  D:yz
 F:z3  F:z  F:xyz  F:z2x  F:z2y  F:x  F:y


 Configuration of Valence Electrons
 ==================================

          Occupation Numbers
          -------------------------------------------------
 S        2*2
 P        2
 D        0
 F        0
          -------------------------------------------------

 Total:   6

 Net Charge: 0 (Nuclei minus Electrons)

 Preset values for MO occupations will be applied through SCF cycle no. 1000000
 Thereafter, the program will assign electrons to MOs that are spatially
 similar to the occupied MOs in a "reference" cycle ("KeepOrbitals").
 The reference cycle is always the PREVIOUS cycle: it will evolve with
 the SCF procedure.



 ================================
 (Slater-type)  F U N C T I O N S  ***  (Basis and Fit)  ***
 ================================
  

 Atom Type    1  (C)
 ==============

 Valence Basis Sets:   9
 -----------------------
   1 S    7.680000
   1 S    5.000000
   2 S    1.280000
   2 S    2.100000
   2 S    4.600000
   2 P    0.820000
   2 P    1.480000
   2 P    2.940000
   3 D    2.200000


 BAS: List of all Elementary Cartesian Basis Functions
 =====================================================

 The numbering in the list below (to the right of the function characteristics) is referred
 to in print-outs of MO eigenvectors and Mulliken populations in the BAS representation
 (as contrasted to the SFO representation).

 Notes:
 1. The functions are characterized by a polynomial prefactor (powers of x,y,z and r) and
    an exponential decay factor alpha.
 2. Since the basis sets are specific for an atom TYPE, the individual functions occur on
    all atoms of that type.
 3. The word 'Core' in the left margin signals that it is a Core Function (CF) : not a
    degree of freedom in the valence set, but only used to ensure orthogonalization of
    the other valence basis functions on the frozen Core Orbitals.


 (power of) X  Y  Z  R     Alpha  on Atom
            ==========     =====     ==========

 C                                    1
                                  ---------------------------------------------------------------------------
            0  0  0  0     7.680      1
            0  0  0  0     5.000      2
            0  0  0  1     1.280      3
            0  0  0  1     2.100      4
            0  0  0  1     4.600      5
            1  0  0  0     0.820      6
            0  1  0  0     0.820      7
            0  0  1  0     0.820      8
            1  0  0  0     1.480      9
            0  1  0  0     1.480     10
            0  0  1  0     1.480     11
            1  0  0  0     2.940     12
            0  1  0  0     2.940     13
            0  0  1  0     2.940     14
            2  0  0  0     2.200     15
            1  1  0  0     2.200     16
            1  0  1  0     2.200     17
            0  2  0  0     2.200     18
            0  1  1  0     2.200     19
            0  0  2  0     2.200     20

 Total number of charge fitting functions (nprimf)        84
 Total number of Cartesian basis functions (naos)         20
 Total number of Cartesian core functions  (ncos)          0



 BAS: List of all Elementary Cartesian Basis Functions
 =====================================================

 The numbering in the list below (to the right of the function characteristics) is referred
 to in print-outs of MO eigenvectors and Mulliken populations in the BAS representation
 (as contrasted to the SFO representation).

 Notes:
 1. The functions are characterized by a polynomial prefactor (powers of x,y,z and r) and
    an exponential decay factor alpha.
 2. Since the basis sets are specific for an atom TYPE, the individual functions occur on
    all atoms of that type.
 3. The word 'Core' in the left margin signals that it is a Core Function (CF) : not a
    degree of freedom in the valence set, but only used to ensure orthogonalization of
    the other valence basis functions on the frozen Core Orbitals.


 (power of) X  Y  Z  R     Alpha  on Atom
            ==========     =====     ==========

 C                                    1
                                  ---------------------------------------------------------------------------
            0  0  0  0     7.680      1
            0  0  0  0     5.000      2
            0  0  0  1     1.280      3
            0  0  0  1     2.100      4
            0  0  0  1     4.600      5
            1  0  0  0     0.820      6
            0  1  0  0     0.820      7
            0  0  1  0     0.820      8
            1  0  0  0     1.480      9
            0  1  0  0     1.480     10
            0  0  1  0     1.480     11
            1  0  0  0     2.940     12
            0  1  0  0     2.940     13
            0  0  1  0     2.940     14
            2  0  0  0     2.200     15
            1  1  0  0     2.200     16
            1  0  1  0     2.200     17
            0  2  0  0     2.200     18
            0  1  1  0     2.200     19
            0  0  2  0     2.200     20
1
 ***************************************************************************************************



                                              ***********************
                                              *  T E C H N I C A L  *
                                              ***********************
  



 =============================================================
 P A R A L L E L I Z A T I O N  and  V E C T O R I Z A T I O N
 =============================================================
  
 Nr of parallel processes:                                1
 Maximum vector length in NumInt loops:                 128

 IO buffersize (Mb):                                     64.000000



 =====================
 S C F   U P D A T E S
 =====================
  
 Max. nr. of cycles:                               300
 Convergence criterion:                              0.0000000100
   secondary criterion:                              0.0000000100

 Mix parameter (when DIIS does not apply):           0.2000000000
 Special mix parameter for the first cycle:          1.0000000000
 Mixed ADIIS+DIIS will be used
    Max number of expansion vectors:                10
    Pure ADIIS when Max([F,P]) is above              0.1000000000
    Pure DIIS when Max([F,P]) is below               0.0010000000
 Automatic ElectronSmearing (in case of problematic SCF convergence) disabled



 =================
 P R E C I S I O N  ***  (General: NumInt, NeglectFunctionTails, ...)  ***
 =================
  

 NumInt:           Target precision:                12.0000000000
 -------           Initial precision:               10.0000000000
                   Min. precision (optimization):   10.0000000000

 Neglect Functions:          Basis functions:        0.1000000000E-13
 ------------------          Fit functions:          0.1000000000E-13



 ===========================
 L I N E A R   S C A L I N G
 ===========================
  

 Cut-off radii density fit:                        0.1000000000E-97
 Overlap cut-off criterion AO matrix elements:     0.1000000000E-97
 Cut-offs for Coulomb potential and fitted density:0.1000000000E-97
 Cut-off criterion for Coulomb multipole terms:    0.1000000000E-97
 Progressive Convergence parameter:                 0.000000000    
1
 ***************************************************************************************************



                                            ***************************
                                            *  C O M P U T A T I O N  *
                                            ***************************
  

 Number of elements of the density matrix on this node (used, total):       210       210



 ===========================================
 Numerical Integration : Fuzzy Cells (Becke)
 ===========================================
  
 Becke grid quality: VERYGOOD       
  
 Lebedev angular grid order:             min:  13 max:  41
 Nr. of radial points:                   min:  72 max:  72

 Total nr. of points:         72
 Nr. of blocks:                1
 Block length:                72
 Nr. of dummy points:          0


 Test of Precision of the Numerical Integration Grid
 ===================================================

 Integral of the Total Core Density:                   0.00000000000000



 ========================
 Density Fitting (zlmFit)
 ========================
  
 ZlmFit Fit Quality: VERYGOOD       
  
 Max L-expansion:                        min:   0 max:   0
 Nr. of radial interpolation points:     min: 160 max: 160



 =====
 S C F  ***  ScaSCF  ***
 =====
  

 CYCLE    1
 SCF Error: norm([F,P])=      0.000000000000, max([F,P])=      0.000000000000
 orbitals (Q,E):
 ---------------
 S :1...5            ( 2.00   -17.9995)  ( 2.00    -4.4761)  ( 0.00    -1.9482)  ( 0.00     0.6812)
                     ( 0.00    42.8100)
 P :1...3            ( 2.00    -4.4994)  ( 0.00    -1.9807)  ( 0.00    -1.0849)
 D :1...1            ( 0.00    -1.9800)

 CYCLE    2
  SDIIS (wt  0.000):  1.0000 -0.0000
 A-DIIS (wt  1.000):  0.0000  1.0000
  DIIS coefficients:  0.0000  1.0000
 SCF Error: norm([F,P])=      4.718329324295, max([F,P])=      3.469737510728
 orbitals (Q,E):
 ---------------
 S :1...3            ( 2.00    -7.6663)  ( 2.00    -0.0220)  ( 0.00     0.8680)
 P :1...2            ( 2.00     0.1264)  ( 0.00     0.5867)
 D :1...1            ( 0.00     1.7638)

 CYCLE    3
  SDIIS (wt  0.000):  0.2113  0.7887
 A-DIIS (wt  1.000):  0.1004  0.8996
  DIIS coefficients:  0.1004  0.8996
 SCF Error: norm([F,P])=      1.641406717737, max([F,P])=      1.330227939297
 orbitals (Q,E):
 ---------------
 S :1...3            ( 2.00   -10.9274)  ( 2.00    -0.9622)  ( 0.00     0.1103)
 P :1...2            ( 2.00    -0.6632)  ( 0.00     0.0108)
 D :1...1            ( 0.00     0.8186)

 CYCLE    4
  SDIIS (wt  0.000): -0.0542  0.2389  0.8153
 A-DIIS (wt  1.000):  0.0000  0.1015  0.8985
  DIIS coefficients:  0.0000  0.1015  0.8985
 SCF Error: norm([F,P])=      0.766249020955, max([F,P])=      0.619555143960
 orbitals (Q,E):
 ---------------
 S :1...3            ( 2.00    -9.5303)  ( 2.00    -0.3692)  ( 0.00     0.4755)
 P :1...2            ( 2.00    -0.0810)  ( 0.00     0.2503)
 D :1...1            ( 0.00     1.3634)

 CYCLE    5
  SDIIS (wt  0.000): -0.0160 -0.0548  0.3423  0.7286
 A-DIIS (wt  1.000):  0.0000  0.0000  0.1784  0.8216
  DIIS coefficients:  0.0000  0.0000  0.1784  0.8216
 SCF Error: norm([F,P])=      0.389868964396, max([F,P])=      0.316455405440
 orbitals (Q,E):
 ---------------
 S :1...3            ( 2.00   -10.1308)  ( 2.00    -0.5808)  ( 0.00     0.3225)
 P :1...2            ( 2.00    -0.2752)  ( 0.00     0.1354)
 D :1...1            ( 0.00     1.1610)

 CYCLE    6
  SDIIS (wt  0.000):  0.0022 -0.0101 -0.0814  0.2602  0.8291
 A-DIIS (wt  1.000):  0.0000  0.0000  0.0000  0.0906  0.9094
  DIIS coefficients:  0.0000  0.0000  0.0000  0.0906  0.9094
 SCF Error: norm([F,P])=      0.169478782651, max([F,P])=      0.133709264620
 orbitals (Q,E):
 ---------------
 S :1...3            ( 2.00    -9.8408)  ( 2.00    -0.4614)  ( 0.00     0.4011)
 P :1...2            ( 2.00    -0.1623)  ( 0.00     0.1897)
 D :1...1            ( 0.00     1.2742)

 CYCLE    7
  SDIIS (wt  0.181):  0.0001  0.0021 -0.0074 -0.1199  0.2855  0.8397
 A-DIIS (wt  0.819):  0.0000  0.0000  0.0000  0.0000  0.2354  0.7646
  DIIS coefficients:  0.0000  0.0004 -0.0013 -0.0217  0.2445  0.7781
 SCF Error: norm([F,P])=      0.103288762626, max([F,P])=      0.082117451540
 orbitals (Q,E):
 ---------------
 S :1...3            ( 2.00    -9.9785)  ( 2.00    -0.5140)  ( 0.00     0.3646)
 P :1...2            ( 2.00    -0.2112)  ( 0.00     0.1629)
 D :1...1            ( 0.00     1.2241)

 CYCLE    8
  SDIIS (wt  0.784): -0.0000  0.0004  0.0002 -0.0175 -0.0332  0.2315  0.8187
 A-DIIS (wt  0.216):  0.0000  0.0000  0.0000  0.0000  0.0000  0.0000  1.0000
  DIIS coefficients: -0.0000  0.0003  0.0002 -0.0137 -0.0260  0.1814  0.8579
 SCF Error: norm([F,P])=      0.028318359748, max([F,P])=      0.022429886868
 orbitals (Q,E):
 ---------------
 S :1...3            ( 2.00    -9.9431)  ( 2.00    -0.4998)  ( 0.00     0.3740)
 P :1...2            ( 2.00    -0.1979)  ( 0.00     0.1695)
 D :1...1            ( 0.00     1.2375)

 CYCLE    9
  SDIIS (wt  0.967): -0.0000  0.0000  0.0007  0.0003 -0.0088 -0.0237  0.1246  0.9068
 A-DIIS (wt  0.033):  0.0000  0.0000  0.0000  0.0000  0.0000  0.0000  0.0000  1.0000
  DIIS coefficients: -0.0000  0.0000  0.0007  0.0003 -0.0085 -0.0229  0.1205  0.9099
 SCF Error: norm([F,P])=      0.005311253876, max([F,P])=      0.004221872611
 orbitals (Q,E):
 ---------------
 S :1...3            ( 2.00    -9.9489)  ( 2.00    -0.5021)  ( 0.00     0.3725)
 P :1...2            ( 2.00    -0.2000)  ( 0.00     0.1684)
 D :1...1            ( 0.00     1.2354)

 CYCLE   10
  SDIIS (wt  1.000): -0.0000  0.0000  0.0000 -0.0000 -0.0000 -0.0008  0.0015  0.0519  0.9474
  DIIS coefficients: -0.0000  0.0000  0.0000 -0.0000 -0.0000 -0.0008  0.0015  0.0519  0.9474
 SCF Error: norm([F,P])=      0.000147123036, max([F,P])=      0.000117158826
 orbitals (Q,E):
 ---------------
 S :1...3            ( 2.00    -9.9487)  ( 2.00    -0.5020)  ( 0.00     0.3726)
 P :1...2            ( 2.00    -0.2000)  ( 0.00     0.1685)
 D :1...1            ( 0.00     1.2354)

 CYCLE   11
  SDIIS (wt  1.000): -0.0000  0.0000  0.0000 -0.0002 -0.0056  1.0058
  DIIS coefficients: -0.0000  0.0000  0.0000 -0.0002 -0.0056  1.0058
 SCF Error: norm([F,P])=      0.000000150945, max([F,P])=      0.000000118048
 orbitals (Q,E):
 ---------------
 S :1...3            ( 2.00    -9.9487)  ( 2.00    -0.5020)  ( 0.00     0.3726)
 P :1...2            ( 2.00    -0.2000)  ( 0.00     0.1685)
 D :1...1            ( 0.00     1.2354)

 CYCLE   12
  SDIIS (wt  1.000): -0.0000 -0.0012  0.0261  0.9752
  DIIS coefficients: -0.0000 -0.0012  0.0261  0.9752
 SCF Error: norm([F,P])=      0.000000001585, max([F,P])=      0.000000000923
 orbitals (Q,E):
 ---------------
 S :1...3            ( 2.00    -9.9487)  ( 2.00    -0.5020)  ( 0.00     0.3726)
 P :1...2            ( 2.00    -0.2000)  ( 0.00     0.1685)
 D :1...1            ( 0.00     1.2354)

 SCF CONVERGED

 CYCLE   13
1
 ***************************************************************************************************



                                                *******************
                                                *  R E S U L T S  *
                                                *******************
  
 *** Setting up for NEW gradients in Focky
 *** Using FIT density in Focky

 Orbital Energies, per Irrep and Spin:
 ======================================
                        Occup              E (au)              E (eV)       Diff (eV) with prev. cycle
                        -----      --------------------        ------       --------------------------
 S
               1        2.000     -0.99487013508798E+01      -270.718               1.10E-09
               2        2.000     -0.50199616014038E+00       -13.660               1.86E-10
               3        0.000      0.37255208846675E+00        10.138
               4        0.000      0.54348066832782E+01       147.889
               5        0.000      0.50447752286766E+02      1372.753
 P
               1        2.000     -0.19997684732702E+00        -5.442               2.50E-10
               2        0.000      0.16847034401992E+00         4.584
               3        0.000      0.20082980222450E+01        54.649
 D
               1        0.000      0.12354458667459E+01        33.618


 Partially Occupied:
               1 P                -0.19997684732702E+00
  
 HOMO :        2 S                -0.50199616014038E+00
 LUMO :        2 P                 0.16847034401992E+00
  


 Orbital Energies, all Irreps
 ========================================

 Irrep        no.  (spin)   Occup              E (au)                E (eV)
 ---------------------------------------------------------------------------
 S             1             2.00       -0.99487013508798E+01      -270.7179
 S             2             2.00       -0.50199616014038E+00       -13.6600
 P             1             2.00       -0.19997684732702E+00        -5.4416
 P             2             0.00        0.16847034401992E+00         4.5843
 S             3             0.00        0.37255208846675E+00        10.1377
 D             1             0.00        0.12354458667459E+01        33.6182
 P             3             0.00        0.20082980222450E+01        54.6486
 S             4             0.00        0.54348066832782E+01       147.8886
 S             5             0.00        0.50447752286766E+02      1372.7532


 All Electron Calculation, thus no Orbital Energies of the Core Orbitals are calculated



 =======================================
 M U L L I K E N   P O P U L A T I O N S
 =======================================
  
 The survey below gives for each atom:
 a) the total charge (Z minus electrons)
 b) the net spin polarization (nr of electrons spin-A minus spin-B)
 c) for each spin the atomic electron valence density (integrated) per L-value.

 Atom              Charge    Spin density          S         P         D         F
 ----              ------    ------------       ------    ------    ------    ------
 1 C               0.0000                       4.0000    2.0000    0.0000    0.0000

 Populations of individual BAS functions
 ----------------------------------------
 1 C            0.4691  1.5172  0.9681  1.0802 -0.0346  0.1765  0.1765  0.1765  0.3823  0.3823
                0.3823  0.1079  0.1079  0.1079  0.0000  0.0000  0.0000  0.0000  0.0000  0.0000

 Gross Charges per Atom (Z minus electrons)
 ==========================================
             0.0000
 Net Total:  0.00000000



 =======================================================================
 Electrostatic potential at the Nuclei due to electrons and other nuclei
 =======================================================================
  
         Atom                  Potential
         ----                  ---------
     1)   C                  14.58341498


 ========================
 No memory problems found
 ========================

 Maximum number of active allocate calls:         363

 *******************************************************************************

                             A D F   E X I T
 NORMAL TERMINATION



 =================
 Timing Statistics
 =================
  
 Total Used :                     CPU=        3.08      System=        0.07     Elapsed=        3.62

 Calls  Section                     ( Mean, Percentage )
 ---------------------------------------------------------------------------------------------------
     3  ><      ................      0.00    0.13             0.00    0.00             0.00    0.07
     1  INIT    ................      0.05    1.56             0.05   66.67             0.56   15.40
     1  GEOMET  ................      0.01    0.39             0.00    0.00             0.01    0.38
     1  INPUTA  ................      0.00    0.00             0.00    0.00             0.00    0.05
     1  MAINSY  ................      0.01    0.26             0.00    0.00             0.01    0.17
     1  SYMFIT  ................      0.00    0.00             0.00    0.00             0.00    0.01
     1  CORORT  ................      0.00    0.00             0.00    0.00             0.00    0.00
     1  SYMORB  ................      0.00    0.00             0.00    0.00             0.00    0.04
     1  CLSMAT  ................      0.01    0.26             0.00    0.00             0.01    0.14
     1  ORTHON  ................      0.00    0.00             0.00    0.00             0.00    0.05
     1  GENPT   ................      0.02    0.52             0.00    0.00             0.02    0.46
     1  PTBAS   ................      0.00    0.13             0.00    0.00             0.00    0.05
    13  FOCKY   ................      0.21   89.48             0.00   27.78             0.21   76.97
    13  FOCKTR  ................      0.00    0.52             0.00    0.00             0.00    0.31
    13  SDIIS   ................      0.00    0.78             0.00    5.56             0.00    0.88
     1  COREPS  ................      0.15    4.81             0.00    0.00             0.15    4.08
     1  POPAN   ................      0.00    0.13             0.00    0.00             0.00    0.13
     1  DEBYE   ................      0.00    0.00             0.00    0.00             0.00    0.01
     1  EXIT PROCEDURE .........      0.03    1.04             0.00    0.00             0.03    0.80


 Currently Open Files (EXIT00)
 ====================

 Unit    Access Format  Status   Type       Ident (file)
 -------------------------------------------------------
   3      SEQ    FORM   TRANSP  NORMAL      LOGFILE
                                          ( logfile )


 Buffered I/O statistics
 =======================
 Memory available:                     67108864
 Number of records fitting in memory:     16131
 Input :   0.1% of                        24134  *4k bytes
 Output:   9.4% of                         1691  *4k bytes
 Records from serial files evicted:           0
                    others evicted:           0
 Hash table lookups:      61260 with          0 conflicts (  0.00%)

 ***************************************************************************************************
 (LOGFILE)
 <Nov07-2017> <10:16:52>  ADF  RunTime: Nov07-2017 10:16:52  Nodes: 1  Procs: 1
 <Nov07-2017> <10:16:52>  Hydrogen (TZP)
 <Nov07-2017> <10:16:52>  RunType   : CREATE
 <Nov07-2017> <10:16:52>  Net Charge: 0 (Nuclei minus Electrons)
 <Nov07-2017> <10:16:52>  Symmetry  : ATOM
  Coordinates
    Atom         X           Y           Z   (Angstrom)
    1.H         0.000000    0.000000    0.000000
 <Nov07-2017> <10:16:52>  >>>> CORORT
 <Nov07-2017> <10:16:52>  >>>> CLSMAT
 <Nov07-2017> <10:16:52>  >>>> ORTHON
 <Nov07-2017> <10:16:52>  >>>> GENPT
 <Nov07-2017> <10:16:52>  Block Length=  64
 <Nov07-2017> <10:16:52>  >>>> PTBAS
 <Nov07-2017> <10:16:52>  >>>> CYCLE
 <Nov07-2017> <10:16:53>              |Error|         MaxErr       Wt(A-DIIS)
 <Nov07-2017> <10:16:53>      1      0.00000000      0.00000000
 <Nov07-2017> <10:16:53>      2      0.04599043      0.04581380
 <Nov07-2017> <10:16:53>      3      0.01042691      0.01001652    100.0
 <Nov07-2017> <10:16:53>      4      0.00201783      0.00197066      1.0
 <Nov07-2017> <10:16:53>      5      0.00002660      0.00002371      0.0
 <Nov07-2017> <10:16:53>      6      0.00000120      0.00000109      0.0
 <Nov07-2017> <10:16:53>      7      0.00000001      0.00000001      0.0
 <Nov07-2017> <10:16:53>      8      0.00000000      0.00000000      0.0
 <Nov07-2017> <10:16:53>  SCF converged
 <Nov07-2017> <10:16:53>      9      0.00000000      0.00000000      0.0
 <Nov07-2017> <10:16:53>  >>>> POPAN
 <Nov07-2017> <10:16:53>  >>>> DEBYE
 <Nov07-2017> <10:16:53>  NORMAL TERMINATION
 <Nov07-2017> <10:16:53>  END
 <Nov07-2017> <10:16:54>  ADF  RunTime: Nov07-2017 10:16:54  Nodes: 1  Procs: 1
 <Nov07-2017> <10:16:54>  Carbon (TZP)
 <Nov07-2017> <10:16:54>  RunType   : CREATE
 <Nov07-2017> <10:16:54>  Net Charge: 0 (Nuclei minus Electrons)
 <Nov07-2017> <10:16:54>  Symmetry  : ATOM
  Coordinates
    Atom         X           Y           Z   (Angstrom)
    1.C         0.000000    0.000000    0.000000
 <Nov07-2017> <10:16:54>  >>>> CORORT
 <Nov07-2017> <10:16:54>  >>>> CLSMAT
 <Nov07-2017> <10:16:54>  >>>> ORTHON
 <Nov07-2017> <10:16:54>  >>>> GENPT
 <Nov07-2017> <10:16:54>  Block Length=  72
 <Nov07-2017> <10:16:54>  >>>> PTBAS
 <Nov07-2017> <10:16:54>  >>>> CYCLE
 <Nov07-2017> <10:16:55>              |Error|         MaxErr       Wt(A-DIIS)
 <Nov07-2017> <10:16:55>      1      0.00000000      0.00000000
 <Nov07-2017> <10:16:55>      2      4.71832932      3.46973751    100.0
 <Nov07-2017> <10:16:55>      3      1.64140672      1.33022794    100.0
 <Nov07-2017> <10:16:55>      4      0.76624902      0.61955514    100.0
 <Nov07-2017> <10:16:56>      5      0.38986896      0.31645541    100.0
 <Nov07-2017> <10:16:56>      6      0.16947878      0.13370926    100.0
 <Nov07-2017> <10:16:56>      7      0.10328876      0.08211745     81.9
 <Nov07-2017> <10:16:56>      8      0.02831836      0.02242989     21.6
 <Nov07-2017> <10:16:56>      9      0.00531125      0.00422187      3.3
 <Nov07-2017> <10:16:56>     10      0.00014712      0.00011716      0.0
 <Nov07-2017> <10:16:57>     11      0.00000015      0.00000012      0.0
 <Nov07-2017> <10:16:57>     12      0.00000000      0.00000000      0.0
 <Nov07-2017> <10:16:57>  SCF converged
 <Nov07-2017> <10:16:57>     13      0.00000000      0.00000000      0.0
 <Nov07-2017> <10:16:57>  >>>> POPAN
 <Nov07-2017> <10:16:57>  >>>> DEBYE
 <Nov07-2017> <10:16:57>  NORMAL TERMINATION
 <Nov07-2017> <10:16:57>  END


 Parallel Execution: Process Information
 ==============================================================================
 Rank   Node Name                              NodeID   MyNodeRank  NodeMaster
    0   helium.science.psu.edu                    0          0          0
    1   helium.science.psu.edu                    0          1         -1
    2   helium.science.psu.edu                    0          2         -1
    3   helium.science.psu.edu                    0          3         -1
    4   helium.science.psu.edu                    0          4         -1
    5   helium.science.psu.edu                    0          5         -1
    6   helium.science.psu.edu                    0          6         -1
    7   helium.science.psu.edu                    0          7         -1
 ==============================================================================


May use up to 3807MB of RAM as shared memory on node 0

title frequencies and calculation of Raman intensities
atoms
C    -0.00000000   -1.39869300   -0.00000000
C     1.21130400   -0.69934700   -0.00000000
C     1.21130400    0.69934700   -0.00000000
C     0.00000000    1.39869300   -0.00000000
C    -1.21130400    0.69934700   -0.00000000
C    -1.21130400   -0.69934700   -0.00000000
H     2.15639900   -1.24499700   -0.00000000
H     2.15639900    1.24499700   -0.00000000
H    -0.00000000    2.48999500   -0.00000000
H    -2.15639900    1.24499700   -0.00000000
H    -2.15639900   -1.24499700   -0.00000000
H     0.00000000   -2.48999500   -0.00000000
end

Symmetry NoSym

BeckeGrid
 Quality VeryGood
End

Geometry
 Frequencies
End

Response
 Raman
 NFreq 1
 FrqBeg 4000
  Angstrom
End

Fragments
H t21.H
C t21.C
End
end input
 input_parser input command:
 sh /amphome/pbl5075/programs/ADF/adfdevel_20171019/bin/input_parser.sh -i temporary_input.in -p adf
Keywords definitions OK.

 *******************************************************************************
 *                                                                             *
 *  -------------------------------------                                      *
 *   Amsterdam Density Functional  (ADF)                                       *
 *  -------------------------------------                                      *
 *                                               r                             *
 *                                                                             *
 *                                                                             *
 *                              =================                              *
 *                              |               |                              *
 *                              |     A D F     |                              *
 *                              |               |                              *
 *                              =================                              *
 *                                                                             *
 *                                                                             *
 *   Online information and documentation:  https://www.scm.com/support/       *
 *   E-mail:  support@scm.com   info@scm.com                                   *
 *                                                                             *
 *   Scientific publications using ADF results must be properly referenced     *
 *   See the User Manuals (or the web site) for recommended citations          *
 *   The terms and conditions of the End User License Agreement apply to       *
 *   the use of ADF, https://www.scm.com/license-terms/                        *
 *                                                                             *
 ************************  x86_64_linux_gnu / openmpi  *************************
 
 Licensed to: Prof. Lasse Jensen / Penn State University / University Park / PA  / USA
 SCM User ID: u8493
  
 ADF  RunTime: Nov07-2017 10:16:58  Nodes: 1  Procs: 8

 Temporary files are created in /scratch/kid_0.VkKqfB


Communication costs MPI_COMM_WORLD:      2.381 usec per message,   0.1695 usec per 8-byte item
Communication costs for intra-node:      2.376 usec per message,   0.2023 usec per 8-byte item

 frequencies and calculation of Raman intensities



 ===========================
 A T T A C H E D   F I L E S
 ===========================
  



 ===============================
 M O D E L   P A R A M E T E R S
 ===============================
  
 DENSITY FUNCTIONAL POTENTIAL (scf)
    LDA:                               VWN                                      
    Gradient Corrections:              ---                                      

 SPIN  (restricted / unrestr.)
    Molecule:                          Restricted                               
    Fragments:                         Restricted                               

 OTHER ASPECTS
    Relativistic Corrections:          ---                                      

    Nuclear Charge Density Model:      Point Charge Nuclei                      
    Core Treatment:                    Frozen Orbital(s)                        

    Hyperfine or Zeeman Interaction:   ---                                      


 Fragment File(s)
 ----------------
 C:
         file : t21.C
         jobid: ADF  RunTime: Nov07-2017 10:16:54  Nodes: 1  Procs: 1
         title: Carbon (TZP)
 H:
         file : t21.H
         jobid: ADF  RunTime: Nov07-2017 10:16:52  Nodes: 1  Procs: 1
         title: Hydrogen (TZP)



                                        ***********************************
                                        *  R U N   T Y P E : FREQUENCIES  *
                                        ***********************************
  



 ===============
 G E O M E T R Y  ***  Planar Molecule  ***
 ===============
  

 ATOMS
 =====                            X Y Z                    CHARGE
                                (Angstrom)             Nucl     +Core       At.Mass
                       --------------------------    ----------------       -------
    1  C               0.0000   -1.3987    0.0000      6.00      6.00       12.0000
    2  C               1.2113   -0.6993    0.0000      6.00      6.00       12.0000
    3  C               1.2113    0.6993    0.0000      6.00      6.00       12.0000
    4  C               0.0000    1.3987    0.0000      6.00      6.00       12.0000
    5  C              -1.2113    0.6993    0.0000      6.00      6.00       12.0000
    6  C              -1.2113   -0.6993    0.0000      6.00      6.00       12.0000
    7  H               2.1564   -1.2450    0.0000      1.00      1.00        1.0078
    8  H               2.1564    1.2450    0.0000      1.00      1.00        1.0078
    9  H               0.0000    2.4900    0.0000      1.00      1.00        1.0078
   10  H              -2.1564    1.2450    0.0000      1.00      1.00        1.0078
   11  H              -2.1564   -1.2450    0.0000      1.00      1.00        1.0078
   12  H               0.0000   -2.4900    0.0000      1.00      1.00        1.0078


 FRAGMENTS
 =========                                     Atoms in this Fragment     Cart. coord.s (Angstrom)
                                               -------------------------------------------------------
    1  C                                                 1  C            0.0000   -1.3987    0.0000
    2  C                                                 2  C            1.2113   -0.6993    0.0000
    3  C                                                 3  C            1.2113    0.6993    0.0000
    4  C                                                 4  C            0.0000    1.3987    0.0000
    5  C                                                 5  C           -1.2113    0.6993    0.0000
    6  C                                                 6  C           -1.2113   -0.6993    0.0000
    7  H                                                 7  H            2.1564   -1.2450    0.0000
    8  H                                                 8  H            2.1564    1.2450    0.0000
    9  H                                                 9  H            0.0000    2.4900    0.0000
   10  H                                                10  H           -2.1564    1.2450    0.0000
   11  H                                                11  H           -2.1564   -1.2450    0.0000
   12  H                                                12  H            0.0000   -2.4900    0.0000


 Interatomic Distance Matrix (Angstrom)
 --------------------------------------

   1)     0.000
   2)     1.399   0.000
   3)     2.423   1.399   0.000
   4)     2.797   2.423   1.399   0.000
   5)     2.423   2.797   2.423   1.399   0.000
   6)     1.399   2.423   2.797   2.423   1.399   0.000
   7)     2.162   1.091   2.162   3.412   3.889   3.412   0.000
   8)     3.412   2.162   1.091   2.162   3.412   3.889   2.490   0.000
   9)     3.889   3.412   2.162   1.091   2.162   3.412   4.313   2.490   0.000
  10)     3.412   3.889   3.412   2.162   1.091   2.162   4.980   4.313   2.490   0.000
  11)     2.162   3.412   3.889   3.412   2.162   1.091   4.313   4.980   4.313   2.490
          0.000
  12)     1.091   2.162   3.412   3.889   3.412   2.162   2.490   4.313   4.980   4.313
          2.490   0.000

 Min. Distance =    1.0913
 Max. Distance =    4.9800



 =====================================
 S Y M M E T R Y ,   E L E C T R O N S
 =====================================
  
 Symmetry: NOSYM

 Irreducible Representations, including subspecies
 -------------------------------------------------
 A

 *** In a FREQUENCIES run the point group symmetry is used only in the construction of the Force Matrix.
     Due to possibly symmetry-breaking displacements, the SCF calculations run in 'NOSYM', with only one
     irrep and one subspecies: A.
 (The current implementation does not use C(LIN),D(LIN) symmetries efficiently in Frequencies-runs.
 If specified they will internally be reset to NOSYM)


 Configuration of Valence Electrons
 ==================================
 ( determined in the SCF procedure )

 Total:   42

 Net Charge: 0 (Nuclei minus Electrons)

 Aufbau principle for MO occupations will be applied through SCF cycle no.     150
 Thereafter, the program will assign electrons to MOs that are spatially
 similar to the occupied MOs in a "reference" cycle ("KeepOrbitals").
 The reference cycle is always the PREVIOUS cycle: it will evolve with
 the SCF procedure.

 The current implementation does not support RESPONSE calculations with Spin-Orbit relativistic terms
1
 ***************************************************************************************************



                                      ****************************************
                                      *  B U I L D : (Fragments, Functions)  *
                                      ****************************************
  



 =======
 S F O s  ***  (Symmetrized Fragment Orbitals)  ***
 =======
  
 SFOs are linear combinations of (valence) Fragment Orbitals (FOs), such that the SFOs transform as the
 irreducible representations of the (molecular) symmetry group. Each SFO is therefore characterized by
 an irrep of the molecule and by a few (or only one) generating FOs.
 The SFOs constitute a symmetry-adapted basis for the Fock matrix. The MO eigenvector coefficients in
 this basis provide a direct interpretation of the MOs in terms of Frontier Orbital Theory.

 The SFOs are combined with auxiliary Core Functions (CFs) to ensure orthogonalization on the (frozen)
 Core Orbitals (COs). The Core-orthogonalized SFOs (CSFOs) constitute the true Fock basis.

 The FOs, and hence also the (C)SFOs are combinations of the elementary basis functions (BAS). The basis
 functions that participate in the description of the SFOs depend on the irrep. The indices of the
 involved functions are printed below for each irrep.
 (The complete list of primitive basis functions is printed in another section)

 Total nr. of (C)SFOs (summation over all irreps) :   150

 NOTE: a (C)SFO that is defined as a combination of more than one FO is usually NOT normalized.



                                       === A ===
 Nr. of SFOs :  150
 Cartesian basis functions that participate in this irrep (total number =   156) :
      1     2     3     4     5     6     9    12     7    10
     13     8    11    14    15    16    17    18    19    20
     21    22    23    24    25    26    29    32    27    30
     33    28    31    34    35    36    37    38    39    40
     41    42    43    44    45    46    49    52    47    50
     53    48    51    54    55    56    57    58    59    60
     61    62    63    64    65    66    69    72    67    70
     73    68    71    74    75    76    77    78    79    80
     81    82    83    84    85    86    89    92    87    90
     93    88    91    94    95    96    97    98    99   100
    101   102   103   104   105   106   109   112   107   110
    113   108   111   114   115   116   117   118   119   120
    121   122   123   124   125   126   127   128   129   130
    131   132   133   134   135   136   137   138   139   140
    141   142   143   144   145   146   147   148   149   150
    151   152   153   154   155   156

    SFO  (index         Fragment          Generating    Expansion in Fragment Orbitals
  indx  incl.CFs)   Occup   Orb.Energy   FragmentType  Coeff.   Orbital     on Fragment
 --------------------------------------------------------------------------------------
     1       1      2.000      -9.949 au  C             1.00      1 S               1
                        (    -270.718 eV)
     2       2      2.000      -0.502 au  C             1.00      2 S               1
                        (     -13.660 eV)
     3       3       --         0.373 au  C             1.00      3 S               1
                        (      10.138 eV)
     4       4       --         5.435 au  C             1.00      4 S               1
                        (     147.889 eV)
     5       5       --        50.448 au  C             1.00      5 S               1
                        (    1372.753 eV)
     6       6      0.667      -0.200 au  C             1.00      1 P:x             1
                        (      -5.442 eV)
     7       7       --         0.168 au  C             1.00      2 P:x             1
                        (       4.584 eV)
     8       8       --         2.008 au  C             1.00      3 P:x             1
                        (      54.649 eV)
     9       9      0.667      -0.200 au  C             1.00      1 P:y             1
                        (      -5.442 eV)
    10      10       --         0.168 au  C             1.00      2 P:y             1
                        (       4.584 eV)
    11      11       --         2.008 au  C             1.00      3 P:y             1
                        (      54.649 eV)
    12      12      0.667      -0.200 au  C             1.00      1 P:z             1
                        (      -5.442 eV)
    13      13       --         0.168 au  C             1.00      2 P:z             1
                        (       4.584 eV)
    14      14       --         2.008 au  C             1.00      3 P:z             1
                        (      54.649 eV)
    15      15       --         1.235 au  C             1.00      1 D:z2            1
                        (      33.618 eV)
    16      16       --         1.235 au  C             1.00      1 D:x2-y2         1
                        (      33.618 eV)
    17      17       --         1.235 au  C             1.00      1 D:xy            1
                        (      33.618 eV)
    18      18       --         1.235 au  C             1.00      1 D:xz            1
                        (      33.618 eV)
    19      19       --         1.235 au  C             1.00      1 D:yz            1
                        (      33.618 eV)
    20      20      2.000      -9.949 au  C             1.00      1 S               2
                        (    -270.718 eV)
    21      21      2.000      -0.502 au  C             1.00      2 S               2
                        (     -13.660 eV)
    22      22       --         0.373 au  C             1.00      3 S               2
                        (      10.138 eV)
    23      23       --         5.435 au  C             1.00      4 S               2
                        (     147.889 eV)
    24      24       --        50.448 au  C             1.00      5 S               2
                        (    1372.753 eV)
    25      25      0.667      -0.200 au  C             1.00      1 P:x             2
                        (      -5.442 eV)
    26      26       --         0.168 au  C             1.00      2 P:x             2
                        (       4.584 eV)
    27      27       --         2.008 au  C             1.00      3 P:x             2
                        (      54.649 eV)
    28      28      0.667      -0.200 au  C             1.00      1 P:y             2
                        (      -5.442 eV)
    29      29       --         0.168 au  C             1.00      2 P:y             2
                        (       4.584 eV)
    30      30       --         2.008 au  C             1.00      3 P:y             2
                        (      54.649 eV)
    31      31      0.667      -0.200 au  C             1.00      1 P:z             2
                        (      -5.442 eV)
    32      32       --         0.168 au  C             1.00      2 P:z             2
                        (       4.584 eV)
    33      33       --         2.008 au  C             1.00      3 P:z             2
                        (      54.649 eV)
    34      34       --         1.235 au  C             1.00      1 D:z2            2
                        (      33.618 eV)
    35      35       --         1.235 au  C             1.00      1 D:x2-y2         2
                        (      33.618 eV)
    36      36       --         1.235 au  C             1.00      1 D:xy            2
                        (      33.618 eV)
    37      37       --         1.235 au  C             1.00      1 D:xz            2
                        (      33.618 eV)
    38      38       --         1.235 au  C             1.00      1 D:yz            2
                        (      33.618 eV)
    39      39      2.000      -9.949 au  C             1.00      1 S               3
                        (    -270.718 eV)
    40      40      2.000      -0.502 au  C             1.00      2 S               3
                        (     -13.660 eV)
    41      41       --         0.373 au  C             1.00      3 S               3
                        (      10.138 eV)
    42      42       --         5.435 au  C             1.00      4 S               3
                        (     147.889 eV)
    43      43       --        50.448 au  C             1.00      5 S               3
                        (    1372.753 eV)
    44      44      0.667      -0.200 au  C             1.00      1 P:x             3
                        (      -5.442 eV)
    45      45       --         0.168 au  C             1.00      2 P:x             3
                        (       4.584 eV)
    46      46       --         2.008 au  C             1.00      3 P:x             3
                        (      54.649 eV)
    47      47      0.667      -0.200 au  C             1.00      1 P:y             3
                        (      -5.442 eV)
    48      48       --         0.168 au  C             1.00      2 P:y             3
                        (       4.584 eV)
    49      49       --         2.008 au  C             1.00      3 P:y             3
                        (      54.649 eV)
    50      50      0.667      -0.200 au  C             1.00      1 P:z             3
                        (      -5.442 eV)
    51      51       --         0.168 au  C             1.00      2 P:z             3
                        (       4.584 eV)
    52      52       --         2.008 au  C             1.00      3 P:z             3
                        (      54.649 eV)
    53      53       --         1.235 au  C             1.00      1 D:z2            3
                        (      33.618 eV)
    54      54       --         1.235 au  C             1.00      1 D:x2-y2         3
                        (      33.618 eV)
    55      55       --         1.235 au  C             1.00      1 D:xy            3
                        (      33.618 eV)
    56      56       --         1.235 au  C             1.00      1 D:xz            3
                        (      33.618 eV)
    57      57       --         1.235 au  C             1.00      1 D:yz            3
                        (      33.618 eV)
    58      58      2.000      -9.949 au  C             1.00      1 S               4
                        (    -270.718 eV)
    59      59      2.000      -0.502 au  C             1.00      2 S               4
                        (     -13.660 eV)
    60      60       --         0.373 au  C             1.00      3 S               4
                        (      10.138 eV)
    61      61       --         5.435 au  C             1.00      4 S               4
                        (     147.889 eV)
    62      62       --        50.448 au  C             1.00      5 S               4
                        (    1372.753 eV)
    63      63      0.667      -0.200 au  C             1.00      1 P:x             4
                        (      -5.442 eV)
    64      64       --         0.168 au  C             1.00      2 P:x             4
                        (       4.584 eV)
    65      65       --         2.008 au  C             1.00      3 P:x             4
                        (      54.649 eV)
    66      66      0.667      -0.200 au  C             1.00      1 P:y             4
                        (      -5.442 eV)
    67      67       --         0.168 au  C             1.00      2 P:y             4
                        (       4.584 eV)
    68      68       --         2.008 au  C             1.00      3 P:y             4
                        (      54.649 eV)
    69      69      0.667      -0.200 au  C             1.00      1 P:z             4
                        (      -5.442 eV)
    70      70       --         0.168 au  C             1.00      2 P:z             4
                        (       4.584 eV)
    71      71       --         2.008 au  C             1.00      3 P:z             4
                        (      54.649 eV)
    72      72       --         1.235 au  C             1.00      1 D:z2            4
                        (      33.618 eV)
    73      73       --         1.235 au  C             1.00      1 D:x2-y2         4
                        (      33.618 eV)
    74      74       --         1.235 au  C             1.00      1 D:xy            4
                        (      33.618 eV)
    75      75       --         1.235 au  C             1.00      1 D:xz            4
                        (      33.618 eV)
    76      76       --         1.235 au  C             1.00      1 D:yz            4
                        (      33.618 eV)
    77      77      2.000      -9.949 au  C             1.00      1 S               5
                        (    -270.718 eV)
    78      78      2.000      -0.502 au  C             1.00      2 S               5
                        (     -13.660 eV)
    79      79       --         0.373 au  C             1.00      3 S               5
                        (      10.138 eV)
    80      80       --         5.435 au  C             1.00      4 S               5
                        (     147.889 eV)
    81      81       --        50.448 au  C             1.00      5 S               5
                        (    1372.753 eV)
    82      82      0.667      -0.200 au  C             1.00      1 P:x             5
                        (      -5.442 eV)
    83      83       --         0.168 au  C             1.00      2 P:x             5
                        (       4.584 eV)
    84      84       --         2.008 au  C             1.00      3 P:x             5
                        (      54.649 eV)
    85      85      0.667      -0.200 au  C             1.00      1 P:y             5
                        (      -5.442 eV)
    86      86       --         0.168 au  C             1.00      2 P:y             5
                        (       4.584 eV)
    87      87       --         2.008 au  C             1.00      3 P:y             5
                        (      54.649 eV)
    88      88      0.667      -0.200 au  C             1.00      1 P:z             5
                        (      -5.442 eV)
    89      89       --         0.168 au  C             1.00      2 P:z             5
                        (       4.584 eV)
    90      90       --         2.008 au  C             1.00      3 P:z             5
                        (      54.649 eV)
    91      91       --         1.235 au  C             1.00      1 D:z2            5
                        (      33.618 eV)
    92      92       --         1.235 au  C             1.00      1 D:x2-y2         5
                        (      33.618 eV)
    93      93       --         1.235 au  C             1.00      1 D:xy            5
                        (      33.618 eV)
    94      94       --         1.235 au  C             1.00      1 D:xz            5
                        (      33.618 eV)
    95      95       --         1.235 au  C             1.00      1 D:yz            5
                        (      33.618 eV)
    96      96      2.000      -9.949 au  C             1.00      1 S               6
                        (    -270.718 eV)
    97      97      2.000      -0.502 au  C             1.00      2 S               6
                        (     -13.660 eV)
    98      98       --         0.373 au  C             1.00      3 S               6
                        (      10.138 eV)
    99      99       --         5.435 au  C             1.00      4 S               6
                        (     147.889 eV)
   100     100       --        50.448 au  C             1.00      5 S               6
                        (    1372.753 eV)
   101     101      0.667      -0.200 au  C             1.00      1 P:x             6
                        (      -5.442 eV)
   102     102       --         0.168 au  C             1.00      2 P:x             6
                        (       4.584 eV)
   103     103       --         2.008 au  C             1.00      3 P:x             6
                        (      54.649 eV)
   104     104      0.667      -0.200 au  C             1.00      1 P:y             6
                        (      -5.442 eV)
   105     105       --         0.168 au  C             1.00      2 P:y             6
                        (       4.584 eV)
   106     106       --         2.008 au  C             1.00      3 P:y             6
                        (      54.649 eV)
   107     107      0.667      -0.200 au  C             1.00      1 P:z             6
                        (      -5.442 eV)
   108     108       --         0.168 au  C             1.00      2 P:z             6
                        (       4.584 eV)
   109     109       --         2.008 au  C             1.00      3 P:z             6
                        (      54.649 eV)
   110     110       --         1.235 au  C             1.00      1 D:z2            6
                        (      33.618 eV)
   111     111       --         1.235 au  C             1.00      1 D:x2-y2         6
                        (      33.618 eV)
   112     112       --         1.235 au  C             1.00      1 D:xy            6
                        (      33.618 eV)
   113     113       --         1.235 au  C             1.00      1 D:xz            6
                        (      33.618 eV)
   114     114       --         1.235 au  C             1.00      1 D:yz            6
                        (      33.618 eV)
   115     115      1.000      -0.233 au  H             1.00      1 S               7
                        (      -6.353 eV)
   116     116       --         0.095 au  H             1.00      2 S               7
                        (       2.572 eV)
   117     117       --         1.548 au  H             1.00      3 S               7
                        (      42.112 eV)
   118     118       --         0.403 au  H             1.00      1 P:x             7
                        (      10.967 eV)
   119     119       --         0.403 au  H             1.00      1 P:y             7
                        (      10.967 eV)
   120     120       --         0.403 au  H             1.00      1 P:z             7
                        (      10.967 eV)
   121     121      1.000      -0.233 au  H             1.00      1 S               8
                        (      -6.353 eV)
   122     122       --         0.095 au  H             1.00      2 S               8
                        (       2.572 eV)
   123     123       --         1.548 au  H             1.00      3 S               8
                        (      42.112 eV)
   124     124       --         0.403 au  H             1.00      1 P:x             8
                        (      10.967 eV)
   125     125       --         0.403 au  H             1.00      1 P:y             8
                        (      10.967 eV)
   126     126       --         0.403 au  H             1.00      1 P:z             8
                        (      10.967 eV)
   127     127      1.000      -0.233 au  H             1.00      1 S               9
                        (      -6.353 eV)
   128     128       --         0.095 au  H             1.00      2 S               9
                        (       2.572 eV)
   129     129       --         1.548 au  H             1.00      3 S               9
                        (      42.112 eV)
   130     130       --         0.403 au  H             1.00      1 P:x             9
                        (      10.967 eV)
[...]
 <Nov07-2017> <12:12:18>  SCF converged
 <Nov07-2017> <12:12:20>     10      0.00000059      0.00000009      0.0
 <Nov07-2017> <12:12:20>  >>>> TOTEN
 <Nov07-2017> <12:12:28>  >>>> POPAN
 <Nov07-2017> <12:12:28>  >>>> DEBYE
 <Nov07-2017> <12:12:28>  >>>> POLAR
 <Nov07-2017> <12:13:42>  >>>> ENGRAD
  Coordinates in Frequency Displacement 63
    Atom         X           Y           Z   (Angstrom)
    1.C         0.000000   -1.398693    0.000000
    2.C         1.211304   -0.699347    0.000000
    3.C         1.211304    0.699347    0.000000
    4.C         0.000000    1.398693    0.000000
    5.C        -1.211304    0.699347    0.000000
    6.C        -1.211304   -0.699347    0.000000
    7.H         2.156399   -1.244997    0.000000
    8.H         2.156399    1.244997    0.000000
    9.H         0.000000    2.489995    0.000000
   10.H        -2.156399    1.244997    0.000000
   11.H        -2.156399   -1.254997    0.000000
   12.H         0.000000   -2.489995    0.000000
 <Nov07-2017> <12:13:48>  >>>> CORORT
 <Nov07-2017> <12:13:48>  >>>> CLSMAT
 <Nov07-2017> <12:13:48>  >>>> ORTHON
 <Nov07-2017> <12:13:48>  >>>> GENPT
 <Nov07-2017> <12:13:48>  Block Length= 128
 <Nov07-2017> <12:13:48>  >>>> PTBAS
 <Nov07-2017> <12:13:50>  >>>> CYCLE
 <Nov07-2017> <12:13:52>              |Error|         MaxErr       Wt(A-DIIS)
 <Nov07-2017> <12:13:52>      1      0.03032007      0.01513503
 <Nov07-2017> <12:13:53>      2      0.00803750      0.00158176    100.0
 <Nov07-2017> <12:13:55>      3      0.02039424      0.00378816    100.0
 <Nov07-2017> <12:13:56>      4      0.00554087      0.00111640      0.1
 <Nov07-2017> <12:13:58>      5      0.00097028      0.00015726      0.0
 <Nov07-2017> <12:14:00>      6      0.00011517      0.00001659      0.0
 <Nov07-2017> <12:14:01>      7      0.00004988      0.00000646      0.0
 <Nov07-2017> <12:14:03>      8      0.00000737      0.00000150      0.0
 <Nov07-2017> <12:14:04>      9      0.00000396      0.00000064      0.0
 <Nov07-2017> <12:14:04>  SCF converged
 <Nov07-2017> <12:14:06>     10      0.00000052      0.00000009      0.0
 <Nov07-2017> <12:14:06>  >>>> TOTEN
 <Nov07-2017> <12:14:14>  >>>> POPAN
 <Nov07-2017> <12:14:14>  >>>> DEBYE
 <Nov07-2017> <12:14:14>  >>>> POLAR
 <Nov07-2017> <12:15:30>  >>>> ENGRAD
  Coordinates in Frequency Displacement 64
    Atom         X           Y           Z   (Angstrom)
    1.C         0.000000   -1.398693    0.000000
    2.C         1.211304   -0.699347    0.000000
    3.C         1.211304    0.699347    0.000000
    4.C         0.000000    1.398693    0.000000
    5.C        -1.211304    0.699347    0.000000
    6.C        -1.211304   -0.699347    0.000000
    7.H         2.156399   -1.244997    0.000000
    8.H         2.156399    1.244997    0.000000
    9.H         0.000000    2.489995    0.000000
   10.H        -2.156399    1.244997    0.000000
   11.H        -2.156399   -1.234997    0.000000
   12.H         0.000000   -2.489995    0.000000
 <Nov07-2017> <12:15:36>  >>>> CORORT
 <Nov07-2017> <12:15:36>  >>>> CLSMAT
 <Nov07-2017> <12:15:36>  >>>> ORTHON
 <Nov07-2017> <12:15:36>  >>>> GENPT
 <Nov07-2017> <12:15:36>  Block Length= 128
 <Nov07-2017> <12:15:37>  >>>> PTBAS
 <Nov07-2017> <12:15:38>  >>>> CYCLE
 <Nov07-2017> <12:15:40>              |Error|         MaxErr       Wt(A-DIIS)
 <Nov07-2017> <12:15:40>      1      0.02339329      0.01096922
 <Nov07-2017> <12:15:42>      2      0.00604272      0.00134774    100.0
 <Nov07-2017> <12:15:43>      3      0.00230261      0.00049112    100.0
 <Nov07-2017> <12:15:45>      4      0.00427585      0.00097191      0.0
 <Nov07-2017> <12:15:46>      5      0.00079363      0.00013164      0.0
 <Nov07-2017> <12:15:48>      6      0.00009648      0.00001496      0.0
 <Nov07-2017> <12:15:49>      7      0.00003863      0.00000471      0.0
 <Nov07-2017> <12:15:51>      8      0.00000635      0.00000136      0.0
 <Nov07-2017> <12:15:52>      9      0.00000340      0.00000054      0.0
 <Nov07-2017> <12:15:53>  SCF converged
 <Nov07-2017> <12:15:54>     10      0.00000039      0.00000006      0.0
 <Nov07-2017> <12:15:54>  >>>> TOTEN
 <Nov07-2017> <12:16:02>  >>>> POPAN
 <Nov07-2017> <12:16:02>  >>>> DEBYE
 <Nov07-2017> <12:16:02>  >>>> POLAR
 <Nov07-2017> <12:17:15>  >>>> ENGRAD
  Coordinates in Frequency Displacement 65
    Atom         X           Y           Z   (Angstrom)
    1.C         0.000000   -1.398693    0.000000
    2.C         1.211304   -0.699347    0.000000
    3.C         1.211304    0.699347    0.000000
    4.C         0.000000    1.398693    0.000000
    5.C        -1.211304    0.699347    0.000000
    6.C        -1.211304   -0.699347    0.000000
    7.H         2.156399   -1.244997    0.000000
    8.H         2.156399    1.244997    0.000000
    9.H         0.000000    2.489995    0.000000
   10.H        -2.156399    1.244997    0.000000
   11.H        -2.156399   -1.244997   -0.010000
   12.H         0.000000   -2.489995    0.000000
 <Nov07-2017> <12:17:20>  >>>> CORORT
 <Nov07-2017> <12:17:21>  >>>> CLSMAT
 <Nov07-2017> <12:17:21>  >>>> ORTHON
 <Nov07-2017> <12:17:21>  >>>> GENPT
 <Nov07-2017> <12:17:21>  Block Length= 128
 <Nov07-2017> <12:17:21>  >>>> PTBAS
 <Nov07-2017> <12:17:23>  >>>> CYCLE
 <Nov07-2017> <12:17:25>              |Error|         MaxErr       Wt(A-DIIS)
 <Nov07-2017> <12:17:25>      1      0.01251563      0.00555146
 <Nov07-2017> <12:17:27>      2      0.00329397      0.00070035    100.0
 <Nov07-2017> <12:17:28>      3      0.00788291      0.00157931    100.0
 <Nov07-2017> <12:17:30>      4      0.00197484      0.00044296      0.0
 <Nov07-2017> <12:17:32>      5      0.00044370      0.00007220      0.0
 <Nov07-2017> <12:17:34>      6      0.00006747      0.00000978      0.0
 <Nov07-2017> <12:17:36>      7      0.00002031      0.00000227      0.0
 <Nov07-2017> <12:17:37>      8      0.00000600      0.00000114      0.0
 <Nov07-2017> <12:17:39>      9      0.00000168      0.00000027      0.0
 <Nov07-2017> <12:17:39>  SCF converged
 <Nov07-2017> <12:17:41>     10      0.00000049      0.00000006      0.0
 <Nov07-2017> <12:17:41>  >>>> TOTEN
 <Nov07-2017> <12:17:50>  >>>> POPAN
 <Nov07-2017> <12:17:50>  >>>> DEBYE
 <Nov07-2017> <12:17:50>  >>>> POLAR
 <Nov07-2017> <12:19:09>  >>>> ENGRAD
  Coordinates in Frequency Displacement 66
    Atom         X           Y           Z   (Angstrom)
    1.C         0.000000   -1.398693    0.000000
    2.C         1.211304   -0.699347    0.000000
    3.C         1.211304    0.699347    0.000000
    4.C         0.000000    1.398693    0.000000
    5.C        -1.211304    0.699347    0.000000
    6.C        -1.211304   -0.699347    0.000000
    7.H         2.156399   -1.244997    0.000000
    8.H         2.156399    1.244997    0.000000
    9.H         0.000000    2.489995    0.000000
   10.H        -2.156399    1.244997    0.000000
   11.H        -2.156399   -1.244997    0.010000
   12.H         0.000000   -2.489995    0.000000
 <Nov07-2017> <12:19:15>  >>>> CORORT
 <Nov07-2017> <12:19:15>  >>>> CLSMAT
 <Nov07-2017> <12:19:15>  >>>> ORTHON
 <Nov07-2017> <12:19:15>  >>>> GENPT
 <Nov07-2017> <12:19:15>  Block Length= 128
 <Nov07-2017> <12:19:16>  >>>> PTBAS
 <Nov07-2017> <12:19:17>  >>>> CYCLE
 <Nov07-2017> <12:19:19>              |Error|         MaxErr       Wt(A-DIIS)
 <Nov07-2017> <12:19:19>      1      0.00818914      0.00282485
 <Nov07-2017> <12:19:21>      2      0.00195789      0.00055320    100.0
 <Nov07-2017> <12:19:23>      3      0.00160349      0.00040967    100.0
 <Nov07-2017> <12:19:25>      4      0.00066699      0.00008825      0.0
 <Nov07-2017> <12:19:27>      5      0.00024614      0.00004585      0.0
 <Nov07-2017> <12:19:29>      6      0.00003603      0.00000523      0.0
 <Nov07-2017> <12:19:31>      7      0.00001831      0.00000305      0.0
 <Nov07-2017> <12:19:32>      8      0.00000229      0.00000033      0.0
 <Nov07-2017> <12:19:32>  SCF converged
 <Nov07-2017> <12:19:34>      9      0.00000064      0.00000011      0.0
 <Nov07-2017> <12:19:34>  >>>> TOTEN
 <Nov07-2017> <12:19:43>  >>>> POPAN
 <Nov07-2017> <12:19:43>  >>>> DEBYE
 <Nov07-2017> <12:19:43>  >>>> POLAR
 <Nov07-2017> <12:21:01>  >>>> ENGRAD
  Coordinates in Frequency Displacement 67
    Atom         X           Y           Z   (Angstrom)
    1.C         0.000000   -1.398693    0.000000
    2.C         1.211304   -0.699347    0.000000
    3.C         1.211304    0.699347    0.000000
    4.C         0.000000    1.398693    0.000000
    5.C        -1.211304    0.699347    0.000000
    6.C        -1.211304   -0.699347    0.000000
    7.H         2.156399   -1.244997    0.000000
    8.H         2.156399    1.244997    0.000000
    9.H         0.000000    2.489995    0.000000
   10.H        -2.156399    1.244997    0.000000
   11.H        -2.156399   -1.244997    0.000000
   12.H        -0.010000   -2.489995    0.000000
 <Nov07-2017> <12:21:07>  >>>> CORORT
 <Nov07-2017> <12:21:07>  >>>> CLSMAT
 <Nov07-2017> <12:21:07>  >>>> ORTHON
 <Nov07-2017> <12:21:07>  >>>> GENPT
 <Nov07-2017> <12:21:07>  Block Length= 128
 <Nov07-2017> <12:21:07>  >>>> PTBAS
 <Nov07-2017> <12:21:09>  >>>> CYCLE
 <Nov07-2017> <12:21:11>              |Error|         MaxErr       Wt(A-DIIS)
 <Nov07-2017> <12:21:11>      1      0.00615983      0.00141229
 <Nov07-2017> <12:21:13>      2      0.00149406      0.00027610    100.0
 <Nov07-2017> <12:21:14>      3      0.00241942      0.00039757    100.0
 <Nov07-2017> <12:21:16>      4      0.00046020      0.00009808      0.0
 <Nov07-2017> <12:21:18>      5      0.00013257      0.00001812      0.0
 <Nov07-2017> <12:21:19>      6      0.00005727      0.00001065      0.0
 <Nov07-2017> <12:21:21>      7      0.00001053      0.00000136      0.0
 <Nov07-2017> <12:21:23>      8      0.00000120      0.00000019      0.0
 <Nov07-2017> <12:21:23>  SCF converged
 <Nov07-2017> <12:21:24>      9      0.00000058      0.00000009      0.0
 <Nov07-2017> <12:21:24>  >>>> TOTEN
 <Nov07-2017> <12:21:32>  >>>> POPAN
 <Nov07-2017> <12:21:32>  >>>> DEBYE
 <Nov07-2017> <12:21:32>  >>>> POLAR
 <Nov07-2017> <12:22:44>  >>>> ENGRAD
  Coordinates in Frequency Displacement 68
    Atom         X           Y           Z   (Angstrom)
    1.C         0.000000   -1.398693    0.000000
    2.C         1.211304   -0.699347    0.000000
    3.C         1.211304    0.699347    0.000000
    4.C         0.000000    1.398693    0.000000
    5.C        -1.211304    0.699347    0.000000
    6.C        -1.211304   -0.699347    0.000000
    7.H         2.156399   -1.244997    0.000000
    8.H         2.156399    1.244997    0.000000
    9.H         0.000000    2.489995    0.000000
   10.H        -2.156399    1.244997    0.000000
   11.H        -2.156399   -1.244997    0.000000
   12.H         0.010000   -2.489995    0.000000
 <Nov07-2017> <12:22:50>  >>>> CORORT
 <Nov07-2017> <12:22:50>  >>>> CLSMAT
 <Nov07-2017> <12:22:50>  >>>> ORTHON
 <Nov07-2017> <12:22:50>  >>>> GENPT
 <Nov07-2017> <12:22:50>  Block Length= 128
 <Nov07-2017> <12:22:51>  >>>> PTBAS
 <Nov07-2017> <12:22:52>  >>>> CYCLE
 <Nov07-2017> <12:22:54>              |Error|         MaxErr       Wt(A-DIIS)
 <Nov07-2017> <12:22:54>      1      0.00921799      0.00222029
 <Nov07-2017> <12:22:55>      2      0.00228533      0.00038426    100.0
 <Nov07-2017> <12:22:57>      3      0.00467807      0.00079132    100.0
 <Nov07-2017> <12:22:58>      4      0.00093528      0.00015055      0.0
 <Nov07-2017> <12:23:00>      5      0.00024426      0.00004201      0.0
 <Nov07-2017> <12:23:02>      6      0.00006798      0.00001184      0.0
 <Nov07-2017> <12:23:03>      7      0.00000455      0.00000070      0.0
 <Nov07-2017> <12:23:03>  SCF converged
 <Nov07-2017> <12:23:05>      8      0.00000211      0.00000027      0.0
 <Nov07-2017> <12:23:05>  >>>> TOTEN
 <Nov07-2017> <12:23:13>  >>>> POPAN
 <Nov07-2017> <12:23:13>  >>>> DEBYE
 <Nov07-2017> <12:23:13>  >>>> POLAR
 <Nov07-2017> <12:24:24>  >>>> ENGRAD
  Coordinates in Frequency Displacement 69
    Atom         X           Y           Z   (Angstrom)
    1.C         0.000000   -1.398693    0.000000
    2.C         1.211304   -0.699347    0.000000
    3.C         1.211304    0.699347    0.000000
    4.C         0.000000    1.398693    0.000000
    5.C        -1.211304    0.699347    0.000000
    6.C        -1.211304   -0.699347    0.000000
    7.H         2.156399   -1.244997    0.000000
    8.H         2.156399    1.244997    0.000000
    9.H         0.000000    2.489995    0.000000
   10.H        -2.156399    1.244997    0.000000
   11.H        -2.156399   -1.244997    0.000000
   12.H         0.000000   -2.499995    0.000000
 <Nov07-2017> <12:24:30>  >>>> CORORT
 <Nov07-2017> <12:24:30>  >>>> CLSMAT
 <Nov07-2017> <12:24:30>  >>>> ORTHON
 <Nov07-2017> <12:24:30>  >>>> GENPT
 <Nov07-2017> <12:24:30>  Block Length= 128
 <Nov07-2017> <12:24:31>  >>>> PTBAS
 <Nov07-2017> <12:24:32>  >>>> CYCLE
 <Nov07-2017> <12:24:34>              |Error|         MaxErr       Wt(A-DIIS)
 <Nov07-2017> <12:24:34>      1      0.02222562      0.01131217
 <Nov07-2017> <12:24:36>      2      0.00598594      0.00126997    100.0
 <Nov07-2017> <12:24:37>      3      0.01509535      0.00284705    100.0
 <Nov07-2017> <12:24:39>      4      0.00407525      0.00088348      0.0
 <Nov07-2017> <12:24:40>      5      0.00074176      0.00012250      0.0
 <Nov07-2017> <12:24:42>      6      0.00008743      0.00001322      0.0
 <Nov07-2017> <12:24:43>      7      0.00003742      0.00000473      0.0
 <Nov07-2017> <12:24:45>      8      0.00000568      0.00000118      0.0
 <Nov07-2017> <12:24:47>      9      0.00000308      0.00000047      0.0
 <Nov07-2017> <12:24:47>  SCF converged
 <Nov07-2017> <12:24:48>     10      0.00000034      0.00000006      0.0
 <Nov07-2017> <12:24:48>  >>>> TOTEN
 <Nov07-2017> <12:24:56>  >>>> POPAN
 <Nov07-2017> <12:24:56>  >>>> DEBYE
 <Nov07-2017> <12:24:56>  >>>> POLAR
 <Nov07-2017> <12:26:04>  >>>> ENGRAD
  Coordinates in Frequency Displacement 70
    Atom         X           Y           Z   (Angstrom)
    1.C         0.000000   -1.398693    0.000000
    2.C         1.211304   -0.699347    0.000000
    3.C         1.211304    0.699347    0.000000
    4.C         0.000000    1.398693    0.000000
    5.C        -1.211304    0.699347    0.000000
    6.C        -1.211304   -0.699347    0.000000
    7.H         2.156399   -1.244997    0.000000
    8.H         2.156399    1.244997    0.000000
    9.H         0.000000    2.489995    0.000000
   10.H        -2.156399    1.244997    0.000000
   11.H        -2.156399   -1.244997    0.000000
   12.H         0.000000   -2.479995    0.000000
 <Nov07-2017> <12:26:10>  >>>> CORORT
 <Nov07-2017> <12:26:10>  >>>> CLSMAT
 <Nov07-2017> <12:26:10>  >>>> ORTHON
 <Nov07-2017> <12:26:10>  >>>> GENPT
 <Nov07-2017> <12:26:10>  Block Length= 128
 <Nov07-2017> <12:26:11>  >>>> PTBAS
 <Nov07-2017> <12:26:12>  >>>> CYCLE
 <Nov07-2017> <12:26:14>              |Error|         MaxErr       Wt(A-DIIS)
 <Nov07-2017> <12:26:14>      1      0.04400523      0.02285455
 <Nov07-2017> <12:26:15>      2      0.01154563      0.00219301    100.0
 <Nov07-2017> <12:26:17>      3      0.00418876      0.00098147    100.0
 <Nov07-2017> <12:26:18>      4      0.00834277      0.00161040    100.0
 <Nov07-2017> <12:26:20>      5      0.00153999      0.00027110      0.0
 <Nov07-2017> <12:26:22>      6      0.00016506      0.00002365      0.0
 <Nov07-2017> <12:26:23>      7      0.00007419      0.00000922      0.0
 <Nov07-2017> <12:26:25>      8      0.00001166      0.00000235      0.0
 <Nov07-2017> <12:26:26>      9      0.00000653      0.00000091      0.0
 <Nov07-2017> <12:26:26>  SCF converged
 <Nov07-2017> <12:26:28>     10      0.00000067      0.00000010      0.0
 <Nov07-2017> <12:26:28>  >>>> TOTEN
 <Nov07-2017> <12:26:35>  >>>> POPAN
 <Nov07-2017> <12:26:35>  >>>> DEBYE
 <Nov07-2017> <12:26:35>  >>>> POLAR
 <Nov07-2017> <12:27:44>  >>>> ENGRAD
  Coordinates in Frequency Displacement 71
    Atom         X           Y           Z   (Angstrom)
    1.C         0.000000   -1.398693    0.000000
    2.C         1.211304   -0.699347    0.000000
    3.C         1.211304    0.699347    0.000000
    4.C         0.000000    1.398693    0.000000
    5.C        -1.211304    0.699347    0.000000
    6.C        -1.211304   -0.699347    0.000000
    7.H         2.156399   -1.244997    0.000000
    8.H         2.156399    1.244997    0.000000
    9.H         0.000000    2.489995    0.000000
   10.H        -2.156399    1.244997    0.000000
   11.H        -2.156399   -1.244997    0.000000
   12.H         0.000000   -2.489995   -0.010000
 <Nov07-2017> <12:27:49>  >>>> CORORT
 <Nov07-2017> <12:27:49>  >>>> CLSMAT
 <Nov07-2017> <12:27:49>  >>>> ORTHON
 <Nov07-2017> <12:27:49>  >>>> GENPT
 <Nov07-2017> <12:27:50>  Block Length= 128
 <Nov07-2017> <12:27:50>  >>>> PTBAS
 <Nov07-2017> <12:27:52>  >>>> CYCLE
 <Nov07-2017> <12:27:53>              |Error|         MaxErr       Wt(A-DIIS)
 <Nov07-2017> <12:27:53>      1      0.02273734      0.01163664
 <Nov07-2017> <12:27:55>      2      0.00597576      0.00111962    100.0
 <Nov07-2017> <12:27:57>      3      0.01498412      0.00278084    100.0
 <Nov07-2017> <12:27:59>      4      0.00399953      0.00077703      0.0
 <Nov07-2017> <12:28:01>      5      0.00074324      0.00011671      0.0
 <Nov07-2017> <12:28:02>      6      0.00009494      0.00001370      0.0
 <Nov07-2017> <12:28:04>      7      0.00003653      0.00000451      0.0
 <Nov07-2017> <12:28:06>      8      0.00000732      0.00000133      0.0
 <Nov07-2017> <12:28:08>      9      0.00000279      0.00000040      0.0
 <Nov07-2017> <12:28:08>  SCF converged
 <Nov07-2017> <12:28:10>     10      0.00000063      0.00000006      0.0
 <Nov07-2017> <12:28:10>  >>>> TOTEN
 <Nov07-2017> <12:28:18>  >>>> POPAN
 <Nov07-2017> <12:28:18>  >>>> DEBYE
 <Nov07-2017> <12:28:19>  >>>> POLAR
 <Nov07-2017> <12:29:31>  >>>> ENGRAD
  Coordinates in Frequency Displacement 72
    Atom         X           Y           Z   (Angstrom)
    1.C         0.000000   -1.398693    0.000000
    2.C         1.211304   -0.699347    0.000000
    3.C         1.211304    0.699347    0.000000
    4.C         0.000000    1.398693    0.000000
    5.C        -1.211304    0.699347    0.000000
    6.C        -1.211304   -0.699347    0.000000
    7.H         2.156399   -1.244997    0.000000
    8.H         2.156399    1.244997    0.000000
    9.H         0.000000    2.489995    0.000000
   10.H        -2.156399    1.244997    0.000000
   11.H        -2.156399   -1.244997    0.000000
   12.H         0.000000   -2.489995    0.010000
 <Nov07-2017> <12:29:37>  >>>> CORORT
 <Nov07-2017> <12:29:37>  >>>> CLSMAT
 <Nov07-2017> <12:29:37>  >>>> ORTHON
 <Nov07-2017> <12:29:37>  >>>> GENPT
 <Nov07-2017> <12:29:37>  Block Length= 128
 <Nov07-2017> <12:29:38>  >>>> PTBAS
 <Nov07-2017> <12:29:39>  >>>> CYCLE
 <Nov07-2017> <12:29:41>              |Error|         MaxErr       Wt(A-DIIS)
 <Nov07-2017> <12:29:41>      1      0.00818635      0.00282381
 <Nov07-2017> <12:29:43>      2      0.00195904      0.00058331    100.0
 <Nov07-2017> <12:29:45>      3      0.00160500      0.00041684    100.0
 <Nov07-2017> <12:29:47>      4      0.00066575      0.00008796      0.0
 <Nov07-2017> <12:29:48>      5      0.00024592      0.00004581      0.0
 <Nov07-2017> <12:29:50>      6      0.00003602      0.00000523      0.0
 <Nov07-2017> <12:29:52>      7      0.00001833      0.00000305      0.0
 <Nov07-2017> <12:29:54>      8      0.00000229      0.00000034      0.0
 <Nov07-2017> <12:29:54>  SCF converged
 <Nov07-2017> <12:29:55>      9      0.00000064      0.00000011      0.0
 <Nov07-2017> <12:29:55>  >>>> TOTEN
 <Nov07-2017> <12:30:04>  >>>> POPAN
 <Nov07-2017> <12:30:04>  >>>> DEBYE
 <Nov07-2017> <12:30:04>  >>>> POLAR
 <Nov07-2017> <12:31:14>  >>>> ENGRAD
 <Nov07-2017> <12:31:20>  Force Constants computed
 <Nov07-2017> <12:31:20>  There were warnings during force constant computation. Please check the output file.
 <Nov07-2017> <12:31:20>  NORMAL TERMINATION
 <Nov07-2017> <12:31:20>  END
